           3
Time step:                9105 Sim. Time [au]      182100.00
O     0.21772121E+01   -0.20803933E+01   -0.14684715E+01
H     0.19937671E+01   -0.13198287E+01   -0.20110274E+01
H     0.30950425E+01   -0.18693683E+01   -0.12122828E+01
           3
Time step:               34460 Sim. Time [au]      689200.00
O     0.11689634E+02   -0.27102677E+02   -0.13809739E+02
H     0.10840608E+02   -0.26781302E+02   -0.13445606E+02
H     0.11900086E+02   -0.27357268E+02   -0.14766969E+02
           3
Time step:               42635 Sim. Time [au]      852700.00
O     0.92278565E+01   -0.17880488E+02   -0.23774073E+02
H     0.89205605E+01   -0.18260417E+02   -0.23047648E+02
H     0.96110662E+01   -0.18622214E+02   -0.24450901E+02
           3
Time step:               33340 Sim. Time [au]      666800.00
O     0.10736144E+02   -0.28895470E+02   -0.12718950E+02
H     0.10126618E+02   -0.29246433E+02   -0.13215565E+02
H     0.11457863E+02   -0.29253490E+02   -0.13005013E+02
           3
Time step:               10590 Sim. Time [au]      211800.00
O     0.36647865E+01   -0.49769122E+01   -0.19477309E+00
H     0.37040296E+01   -0.50474007E+01   -0.10578630E+01
H     0.38081331E+01   -0.41771798E+01    0.13808691E+00
           3
Time step:               26965 Sim. Time [au]      539300.00
O     0.16513946E+02   -0.21150878E+02   -0.97846667E+01
H     0.17194276E+02   -0.21231853E+02   -0.92461257E+01
H     0.15834938E+02   -0.20997673E+02   -0.92739958E+01
           3
Time step:               40140 Sim. Time [au]      802800.00
O     0.91547616E+01   -0.19913360E+02   -0.21683888E+02
H     0.88062229E+01   -0.19142511E+02   -0.21656738E+02
H     0.82715044E+01   -0.20239885E+02   -0.21210438E+02
           3
Time step:                2400 Sim. Time [au]       48000.00
O    -0.21677761E+00   -0.11480129E+01    0.76840862E+00
H    -0.50298649E+00   -0.16343684E+01   -0.85713018E-01
H    -0.97833767E+00   -0.84654606E+00    0.11399449E+01
           3
Time step:               23420 Sim. Time [au]      468400.00
O     0.16569126E+02   -0.16363184E+02   -0.70161456E+01
H     0.17292768E+02   -0.16746187E+02   -0.64561368E+01
H     0.16589132E+02   -0.16123742E+02   -0.79389031E+01
           3
Time step:                9260 Sim. Time [au]      185200.00
O     0.24020845E+01   -0.23735314E+01   -0.11778944E+01
H     0.27022563E+01   -0.15238607E+01   -0.16668112E+01
H     0.29351243E+01   -0.32427951E+01   -0.14163100E+01
           3
Time step:               19925 Sim. Time [au]      398500.00
O     0.13306679E+02   -0.98638483E+01   -0.72106323E+01
H     0.13978447E+02   -0.93442142E+01   -0.65639228E+01
H     0.12609252E+02   -0.97581996E+01   -0.65766114E+01
           3
Time step:                9195 Sim. Time [au]      183900.00
O     0.23812455E+01   -0.22227681E+01   -0.11518073E+01
H     0.24200237E+01   -0.14415508E+01   -0.15152004E+01
H     0.32366876E+01   -0.25935911E+01   -0.10502328E+01
           3
Time step:               20025 Sim. Time [au]      400500.00
O     0.13209480E+02   -0.97337088E+01   -0.71743044E+01
H     0.13541389E+02   -0.10411740E+02   -0.65723511E+01
H     0.12327040E+02   -0.97328629E+01   -0.66987279E+01
           3
Time step:               49715 Sim. Time [au]      994300.00
O     0.12351167E+02   -0.10659379E+02   -0.23557570E+02
H     0.11792605E+02   -0.10932906E+02   -0.24230106E+02
H     0.13249770E+02   -0.11088253E+02   -0.23676669E+02
           3
Time step:               48185 Sim. Time [au]      963700.00
O     0.11181351E+02   -0.13967845E+02   -0.22530112E+02
H     0.10638991E+02   -0.14885956E+02   -0.22503104E+02
H     0.10335234E+02   -0.13505922E+02   -0.22218189E+02
           3
Time step:               14795 Sim. Time [au]      295900.00
O     0.68133365E+01   -0.72968206E+01   -0.31261404E+01
H     0.72719251E+01   -0.77918013E+01   -0.23639414E+01
H     0.75363209E+01   -0.69641767E+01   -0.36011998E+01
           3
Time step:               34575 Sim. Time [au]      691500.00
O     0.11623458E+02   -0.27053661E+02   -0.14006814E+02
H     0.11057797E+02   -0.26541351E+02   -0.14428283E+02
H     0.12342505E+02   -0.27256344E+02   -0.14672131E+02
           3
Time step:               35900 Sim. Time [au]      718000.00
O     0.11060163E+02   -0.25726902E+02   -0.15870070E+02
H     0.11220867E+02   -0.24920202E+02   -0.16227015E+02
H     0.10155014E+02   -0.25695479E+02   -0.15518060E+02
           3
Time step:               30175 Sim. Time [au]      603500.00
O     0.13127113E+02   -0.27175037E+02   -0.11521250E+02
H     0.13229866E+02   -0.26502512E+02   -0.12143140E+02
H     0.13997341E+02   -0.27342999E+02   -0.11130149E+02
           3
Time step:               45730 Sim. Time [au]      914600.00
O     0.10219886E+02   -0.15145402E+02   -0.22127431E+02
H     0.10260713E+02   -0.15899639E+02   -0.21667237E+02
H     0.10042100E+02   -0.14564115E+02   -0.21466966E+02
           3
Time step:                8415 Sim. Time [au]      168300.00
O     0.26449389E+01   -0.18982848E+01   -0.26041670E+01
H     0.18786892E+01   -0.24658201E+01   -0.24759952E+01
H     0.28405369E+01   -0.17616865E+01   -0.35741366E+01
           3
Time step:               40420 Sim. Time [au]      808400.00
O     0.97029538E+01   -0.19382215E+02   -0.22443370E+02
H     0.89048924E+01   -0.19138471E+02   -0.22410392E+02
H     0.93880880E+01   -0.20138165E+02   -0.22079101E+02
           3
Time step:               29840 Sim. Time [au]      596800.00
O     0.13216959E+02   -0.26554648E+02   -0.11472803E+02
H     0.12983837E+02   -0.25820246E+02   -0.11195859E+02
H     0.12815456E+02   -0.27260133E+02   -0.11215259E+02
           3
Time step:               11000 Sim. Time [au]      220000.00
O     0.37278599E+01   -0.58716480E+01   -0.79271281E-01
H     0.45582927E+01   -0.64255451E+01    0.41204995E+00
H     0.38009535E+01   -0.57985679E+01   -0.10175099E+01
           3
Time step:               46210 Sim. Time [au]      924200.00
O     0.96690209E+01   -0.15547939E+02   -0.21910304E+02
H     0.96213696E+01   -0.14855670E+02   -0.22673630E+02
H     0.98422159E+01   -0.16578492E+02   -0.22146818E+02
           3
Time step:               44550 Sim. Time [au]      891000.00
O     0.10112925E+02   -0.15117683E+02   -0.22213305E+02
H     0.98694353E+01   -0.15080416E+02   -0.23038434E+02
H     0.94435175E+01   -0.14539603E+02   -0.21653496E+02
           3
Time step:               11820 Sim. Time [au]      236400.00
O     0.50256857E+01   -0.80794621E+01   -0.23249470E+01
H     0.51408598E+01   -0.85872408E+01   -0.31815858E+01
H     0.42537905E+01   -0.85080449E+01   -0.20149941E+01
           3
Time step:                6785 Sim. Time [au]      135700.00
O     0.18293049E+01   -0.27545585E+01   -0.31535506E+01
H     0.26507146E+01   -0.25239464E+01   -0.30907149E+01
H     0.15357785E+01   -0.35172043E+01   -0.29575710E+01
           3
Time step:               19425 Sim. Time [au]      388500.00
O     0.13277322E+02   -0.97049660E+01   -0.69083436E+01
H     0.13934662E+02   -0.10173235E+02   -0.63544887E+01
H     0.12416037E+02   -0.99144035E+01   -0.66497870E+01
           3
Time step:               35705 Sim. Time [au]      714100.00
O     0.11020353E+02   -0.26271788E+02   -0.15425429E+02
H     0.11376456E+02   -0.25628751E+02   -0.15976968E+02
H     0.10800733E+02   -0.25903588E+02   -0.14471721E+02
           3
Time step:               36430 Sim. Time [au]      728600.00
O     0.11229841E+02   -0.25062098E+02   -0.17159106E+02
H     0.12071516E+02   -0.24883494E+02   -0.16563290E+02
H     0.11407480E+02   -0.24882635E+02   -0.18125315E+02
           3
Time step:                6270 Sim. Time [au]      125400.00
O     0.12441898E+01   -0.35130734E+01   -0.32800732E+01
H     0.15858038E+01   -0.38781098E+01   -0.40399889E+01
H     0.19554877E+01   -0.30341619E+01   -0.30348317E+01
           3
Time step:               10630 Sim. Time [au]      212600.00
O     0.35937802E+01   -0.51112294E+01   -0.17190384E+00
H     0.38374964E+01   -0.49003648E+01   -0.11765380E+01
H     0.34192244E+01   -0.43381562E+01    0.38287765E+00
           3
Time step:               10710 Sim. Time [au]      214200.00
O     0.36079086E+01   -0.53898478E+01   -0.24862240E+00
H     0.37451218E+01   -0.51645344E+01   -0.12441094E+01
H     0.33067791E+01   -0.45506883E+01    0.68016966E-01
           3
Time step:               49280 Sim. Time [au]      985600.00
O     0.11754099E+02   -0.11780973E+02   -0.23011578E+02
H     0.11159198E+02   -0.11739488E+02   -0.23722969E+02
H     0.11155067E+02   -0.12260565E+02   -0.22327484E+02
           3
Time step:               27970 Sim. Time [au]      559400.00
O     0.16487761E+02   -0.22669107E+02   -0.10058118E+02
H     0.16198004E+02   -0.21818930E+02   -0.10354901E+02
H     0.15574000E+02   -0.22865690E+02   -0.10016425E+02
           3
Time step:                8055 Sim. Time [au]      161100.00
O     0.28589545E+01   -0.23793509E+01   -0.28072092E+01
H     0.22383749E+01   -0.19863863E+01   -0.33519120E+01
H     0.31360514E+01   -0.18994604E+01   -0.20476618E+01
           3
Time step:               26905 Sim. Time [au]      538100.00
O     0.16405252E+02   -0.21038330E+02   -0.96736556E+01
H     0.17038497E+02   -0.21165903E+02   -0.90411785E+01
H     0.15767022E+02   -0.20422448E+02   -0.95792145E+01
           3
Time step:               24780 Sim. Time [au]      495600.00
O     0.16758692E+02   -0.18730266E+02   -0.80418944E+01
H     0.17095165E+02   -0.19395600E+02   -0.75320563E+01
H     0.15771315E+02   -0.18681837E+02   -0.76054292E+01
           3
Time step:                9645 Sim. Time [au]      192900.00
O     0.26933087E+01   -0.33072325E+01   -0.74304465E+00
H     0.21941086E+01   -0.41078329E+01   -0.45405003E+00
H     0.19891129E+01   -0.25985120E+01   -0.45873362E+00
           3
Time step:               13835 Sim. Time [au]      276700.00
O     0.60209122E+01   -0.74327215E+01   -0.25073161E+01
H     0.67667473E+01   -0.73245055E+01   -0.29968502E+01
H     0.57758592E+01   -0.65576767E+01   -0.20884420E+01
           3
Time step:               37030 Sim. Time [au]      740600.00
O     0.10676133E+02   -0.25267553E+02   -0.18730154E+02
H     0.10293047E+02   -0.25432353E+02   -0.17960012E+02
H     0.11317096E+02   -0.26006995E+02   -0.18905189E+02
           3
Time step:               40630 Sim. Time [au]      812600.00
O     0.97258967E+01   -0.19023004E+02   -0.22677421E+02
H     0.94457866E+01   -0.19303151E+02   -0.21796766E+02
H     0.10574634E+02   -0.19403878E+02   -0.22998666E+02
           3
Time step:               26380 Sim. Time [au]      527600.00
O     0.17176942E+02   -0.20384003E+02   -0.94236235E+01
H     0.16695607E+02   -0.21015465E+02   -0.98636097E+01
H     0.18016728E+02   -0.20181190E+02   -0.96738190E+01
           3
Time step:               24910 Sim. Time [au]      498200.00
O     0.16836102E+02   -0.18696941E+02   -0.82405165E+01
H     0.17073894E+02   -0.19690309E+02   -0.82200658E+01
H     0.16248665E+02   -0.18477090E+02   -0.74397820E+01
           3
Time step:                7370 Sim. Time [au]      147400.00
O     0.23359891E+01   -0.31089257E+01   -0.30195640E+01
H     0.30129175E+01   -0.37243867E+01   -0.28160698E+01
H     0.24971134E+01   -0.28451025E+01   -0.39530455E+01
           3
Time step:               25285 Sim. Time [au]      505700.00
O     0.17299359E+02   -0.19141490E+02   -0.84158735E+01
H     0.16431930E+02   -0.18578179E+02   -0.84395720E+01
H     0.17844195E+02   -0.19003750E+02   -0.91911885E+01
           3
Time step:               27460 Sim. Time [au]      549200.00
O     0.16942592E+02   -0.22109368E+02   -0.99159483E+01
H     0.17314097E+02   -0.21658955E+02   -0.10623995E+02
H     0.16690193E+02   -0.21519329E+02   -0.93744128E+01
           3
Time step:                8025 Sim. Time [au]      160500.00
O     0.28431887E+01   -0.24067592E+01   -0.28101229E+01
H     0.19924199E+01   -0.22128788E+01   -0.29968186E+01
H     0.27830772E+01   -0.22510444E+01   -0.17697550E+01
           3
Time step:               29130 Sim. Time [au]      582600.00
O     0.14546884E+02   -0.26141287E+02   -0.11747558E+02
H     0.14559919E+02   -0.25221689E+02   -0.12127999E+02
H     0.15188662E+02   -0.26738138E+02   -0.12181993E+02
           3
Time step:                6185 Sim. Time [au]      123700.00
O     0.12748674E+01   -0.37002262E+01   -0.32576672E+01
H     0.17289852E+01   -0.39586321E+01   -0.40538408E+01
H     0.17044378E+01   -0.34271375E+01   -0.23993870E+01
           3
Time step:               43200 Sim. Time [au]      864000.00
O     0.85216852E+01   -0.16876921E+02   -0.23066648E+02
H     0.87175897E+01   -0.16079229E+02   -0.23378878E+02
H     0.90982231E+01   -0.16905015E+02   -0.22288614E+02
           3
Time step:               48645 Sim. Time [au]      972900.00
O     0.11062437E+02   -0.12703878E+02   -0.22932082E+02
H     0.10553425E+02   -0.13604369E+02   -0.22799039E+02
H     0.10257521E+02   -0.12010344E+02   -0.22771870E+02
           3
Time step:               44830 Sim. Time [au]      896600.00
O     0.10292619E+02   -0.14921231E+02   -0.22265264E+02
H     0.11125181E+02   -0.14836301E+02   -0.22906070E+02
H     0.10033648E+02   -0.14071504E+02   -0.21947039E+02
           3
Time step:               14565 Sim. Time [au]      291300.00
O     0.67009526E+01   -0.71680901E+01   -0.27590997E+01
H     0.57468406E+01   -0.76969435E+01   -0.25533519E+01
H     0.65642690E+01   -0.64230619E+01   -0.32415251E+01
           3
Time step:               12860 Sim. Time [au]      257200.00
O     0.52132246E+01   -0.78942295E+01   -0.23853917E+01
H     0.43435158E+01   -0.85106516E+01   -0.21507501E+01
H     0.55059843E+01   -0.75257287E+01   -0.31345141E+01
           3
Time step:               26375 Sim. Time [au]      527500.00
O     0.17180053E+02   -0.20328544E+02   -0.94050933E+01
H     0.16682477E+02   -0.21036341E+02   -0.97694226E+01
H     0.18016829E+02   -0.20115535E+02   -0.96985485E+01
           3
Time step:               36195 Sim. Time [au]      723900.00
O     0.11064083E+02   -0.25083514E+02   -0.16801922E+02
H     0.11060639E+02   -0.25817512E+02   -0.17300675E+02
H     0.11010025E+02   -0.25335166E+02   -0.15943543E+02
           3
Time step:               20715 Sim. Time [au]      414300.00
O     0.13140603E+02   -0.10984072E+02   -0.68308106E+01
H     0.13589596E+02   -0.11751073E+02   -0.73474490E+01
H     0.12690815E+02   -0.10780056E+02   -0.76206581E+01
           3
Time step:               45970 Sim. Time [au]      919400.00
O     0.10090834E+02   -0.15075613E+02   -0.21832601E+02
H     0.95541171E+01   -0.14703199E+02   -0.22436787E+02
H     0.97287155E+01   -0.15673216E+02   -0.21144977E+02
           3
Time step:               11185 Sim. Time [au]      223700.00
O     0.38168339E+01   -0.62347490E+01   -0.77939073E+00
H     0.30558692E+01   -0.66680028E+01   -0.28592758E+00
H     0.38177172E+01   -0.67069330E+01   -0.16702250E+01
           3
Time step:                7645 Sim. Time [au]      152900.00
O     0.26355301E+01   -0.27193595E+01   -0.29590040E+01
H     0.22113425E+01   -0.31853620E+01   -0.22705425E+01
H     0.26919906E+01   -0.34478025E+01   -0.36442302E+01
           3
Time step:               28605 Sim. Time [au]      572100.00
O     0.15302328E+02   -0.24237176E+02   -0.11290382E+02
H     0.14571725E+02   -0.23922294E+02   -0.11770932E+02
H     0.15164503E+02   -0.25263126E+02   -0.11196852E+02
           3
Time step:               40760 Sim. Time [au]      815200.00
O     0.95555856E+01   -0.18955125E+02   -0.22726841E+02
H     0.10465780E+02   -0.18847890E+02   -0.22565380E+02
H     0.94095088E+01   -0.19163695E+02   -0.23675713E+02
           3
Time step:               19350 Sim. Time [au]      387000.00
O     0.13340719E+02   -0.97214915E+01   -0.69411999E+01
H     0.13997889E+02   -0.10122494E+02   -0.64269520E+01
H     0.12881740E+02   -0.10374138E+02   -0.73647413E+01
           3
Time step:               42805 Sim. Time [au]      856100.00
O     0.91011154E+01   -0.17467821E+02   -0.23373521E+02
H     0.86681689E+01   -0.17993250E+02   -0.22643526E+02
H     0.94311323E+01   -0.18167041E+02   -0.24014371E+02
           3
Time step:               38560 Sim. Time [au]      771200.00
O     0.92934968E+01   -0.23829962E+02   -0.19513180E+02
H     0.83186003E+01   -0.23856313E+02   -0.19958151E+02
H     0.93623933E+01   -0.23591131E+02   -0.18562910E+02
           3
Time step:                6075 Sim. Time [au]      121500.00
O     0.14219745E+01   -0.38918908E+01   -0.31542055E+01
H     0.22896467E+01   -0.41330858E+01   -0.28394112E+01
H     0.10058300E+01   -0.34404059E+01   -0.24620749E+01
           3
Time step:               37370 Sim. Time [au]      747400.00
O     0.10543624E+02   -0.25377461E+02   -0.18840915E+02
H     0.11322092E+02   -0.25149390E+02   -0.18394954E+02
H     0.10597284E+02   -0.24991937E+02   -0.19671466E+02
           3
Time step:               44845 Sim. Time [au]      896900.00
O     0.10383184E+02   -0.14921195E+02   -0.22252336E+02
H     0.11110957E+02   -0.14683231E+02   -0.22778114E+02
H     0.99583096E+01   -0.14125558E+02   -0.21810448E+02
           3
Time step:                6720 Sim. Time [au]      134400.00
O     0.16750074E+01   -0.28707147E+01   -0.30837113E+01
H     0.24143665E+01   -0.28903834E+01   -0.25436668E+01
H     0.13573828E+01   -0.37460749E+01   -0.33730791E+01
           3
Time step:                7410 Sim. Time [au]      148200.00
O     0.23836785E+01   -0.30057913E+01   -0.30903631E+01
H     0.30551616E+01   -0.37610927E+01   -0.28585416E+01
H     0.24487654E+01   -0.30477353E+01   -0.40497603E+01
           3
Time step:               48725 Sim. Time [au]      974500.00
O     0.11088715E+02   -0.12557865E+02   -0.22927242E+02
H     0.11677943E+02   -0.13136242E+02   -0.22665357E+02
H     0.10162130E+02   -0.12542191E+02   -0.22370090E+02
           3
Time step:               15725 Sim. Time [au]      314500.00
O     0.98787031E+01   -0.77347072E+01   -0.54289949E+01
H     0.91338127E+01   -0.75840207E+01   -0.58092569E+01
H     0.94498310E+01   -0.82534679E+01   -0.46402606E+01
           3
Time step:               11690 Sim. Time [au]      233800.00
O     0.45875792E+01   -0.78615082E+01   -0.21832742E+01
H     0.52225441E+01   -0.83941105E+01   -0.28332022E+01
H     0.41120304E+01   -0.83424361E+01   -0.15401858E+01
           3
Time step:               41815 Sim. Time [au]      836300.00
O     0.93270661E+01   -0.18986452E+02   -0.23537704E+02
H     0.92987198E+01   -0.18107419E+02   -0.23499780E+02
H     0.84234871E+01   -0.19018152E+02   -0.23289218E+02
           3
Time step:               34195 Sim. Time [au]      683900.00
O     0.12009290E+02   -0.27256286E+02   -0.13223316E+02
H     0.12159356E+02   -0.27834334E+02   -0.12455875E+02
H     0.11170939E+02   -0.26914917E+02   -0.13162292E+02
           3
Time step:               32525 Sim. Time [au]      650500.00
O     0.10087280E+02   -0.29268896E+02   -0.13240195E+02
H     0.10232776E+02   -0.28323090E+02   -0.13567263E+02
H     0.10892094E+02   -0.29717718E+02   -0.13362048E+02
           3
Time step:               36695 Sim. Time [au]      733900.00
O     0.10914211E+02   -0.25161246E+02   -0.17539973E+02
H     0.11090495E+02   -0.24551283E+02   -0.16847546E+02
H     0.10843954E+02   -0.24537982E+02   -0.18286736E+02
           3
Time step:               20400 Sim. Time [au]      408000.00
O     0.12856736E+02   -0.10516905E+02   -0.70140888E+01
H     0.13386260E+02   -0.10581817E+02   -0.61797712E+01
H     0.11943617E+02   -0.10892345E+02   -0.65514792E+01
           3
Time step:               43820 Sim. Time [au]      876400.00
O     0.93597564E+01   -0.15745688E+02   -0.22703103E+02
H     0.88790052E+01   -0.14992074E+02   -0.22540315E+02
H     0.10350273E+02   -0.15522000E+02   -0.22854994E+02
           3
Time step:               38455 Sim. Time [au]      769100.00
O     0.94523059E+01   -0.23924487E+02   -0.19446098E+02
H     0.88089039E+01   -0.23897508E+02   -0.18898384E+02
H     0.10138083E+02   -0.24308434E+02   -0.18970398E+02
           3
Time step:               41445 Sim. Time [au]      828900.00
O     0.91844228E+01   -0.19293201E+02   -0.23066286E+02
H     0.95886381E+01   -0.18444175E+02   -0.23291649E+02
H     0.97719697E+01   -0.20003442E+02   -0.23324049E+02
           3
Time step:               33465 Sim. Time [au]      669300.00
O     0.10879259E+02   -0.28607730E+02   -0.12800817E+02
H     0.11069005E+02   -0.29462940E+02   -0.12460316E+02
H     0.11094073E+02   -0.28325143E+02   -0.13739590E+02
           3
Time step:                6690 Sim. Time [au]      133800.00
O     0.16068206E+01   -0.29407300E+01   -0.30422316E+01
H     0.19424580E+01   -0.34300491E+01   -0.24629050E+01
H     0.10551497E+01   -0.34520974E+01   -0.35689707E+01
           3
Time step:               16155 Sim. Time [au]      323100.00
O     0.11272818E+02   -0.70393590E+01   -0.58808088E+01
H     0.11524345E+02   -0.63206296E+01   -0.56436353E+01
H     0.11992706E+02   -0.76208897E+01   -0.58550692E+01
           3
Time step:               18155 Sim. Time [au]      363100.00
O     0.12360768E+02   -0.80419745E+01   -0.60049168E+01
H     0.12554318E+02   -0.72411160E+01   -0.60271693E+01
H     0.12975551E+02   -0.86690034E+01   -0.64255305E+01
           3
Time step:               42965 Sim. Time [au]      859300.00
O     0.88598301E+01   -0.17181533E+02   -0.23168383E+02
H     0.83930248E+01   -0.17481368E+02   -0.23834715E+02
H     0.97624026E+01   -0.17510534E+02   -0.22994186E+02
           3
Time step:               23180 Sim. Time [au]      463600.00
O     0.16332292E+02   -0.15847598E+02   -0.70049298E+01
H     0.16120891E+02   -0.15667997E+02   -0.79451854E+01
H     0.16355800E+02   -0.15031038E+02   -0.65477644E+01
           3
Time step:               27675 Sim. Time [au]      553500.00
O     0.16879040E+02   -0.21917629E+02   -0.10039149E+02
H     0.17726103E+02   -0.22102783E+02   -0.97511973E+01
H     0.16561269E+02   -0.21834822E+02   -0.91866363E+01
           3
Time step:               46140 Sim. Time [au]      922800.00
O     0.97248947E+01   -0.15398893E+02   -0.21899443E+02
H     0.98815144E+01   -0.14843177E+02   -0.22653639E+02
H     0.10210347E+02   -0.16274584E+02   -0.22251892E+02
           3
Time step:               12155 Sim. Time [au]      243100.00
O     0.50735241E+01   -0.82598346E+01   -0.28025539E+01
H     0.58271147E+01   -0.79817980E+01   -0.24705789E+01
H     0.46444997E+01   -0.91179176E+01   -0.24528063E+01
           3
Time step:               41985 Sim. Time [au]      839700.00
O     0.90258461E+01   -0.18724121E+02   -0.23925436E+02
H     0.94874752E+01   -0.17855969E+02   -0.23983182E+02
H     0.83859828E+01   -0.18739604E+02   -0.23300706E+02
           3
Time step:               40615 Sim. Time [au]      812300.00
O     0.96930728E+01   -0.19040735E+02   -0.22646824E+02
H     0.93594681E+01   -0.19210902E+02   -0.21688606E+02
H     0.10741268E+02   -0.19176905E+02   -0.22748819E+02
           3
Time step:               14130 Sim. Time [au]      282600.00
O     0.61283996E+01   -0.74698663E+01   -0.21743946E+01
H     0.60893995E+01   -0.70538246E+01   -0.14734500E+01
H     0.58983708E+01   -0.83525386E+01   -0.19531177E+01
           3
Time step:               31780 Sim. Time [au]      635600.00
O     0.10878613E+02   -0.28467016E+02   -0.12003523E+02
H     0.11184836E+02   -0.28187320E+02   -0.11286853E+02
H     0.11252944E+02   -0.27954917E+02   -0.12766450E+02
           3
Time step:               48040 Sim. Time [au]      960800.00
O     0.11160896E+02   -0.14372937E+02   -0.22319131E+02
H     0.10872260E+02   -0.15129407E+02   -0.21787089E+02
H     0.10978602E+02   -0.13523176E+02   -0.21952466E+02
           3
Time step:               38020 Sim. Time [au]      760400.00
O     0.95930095E+01   -0.25218340E+02   -0.19564231E+02
H     0.10478237E+02   -0.24895322E+02   -0.19573547E+02
H     0.91265244E+01   -0.24528523E+02   -0.18990517E+02
           3
Time step:               49145 Sim. Time [au]      982900.00
O     0.11614639E+02   -0.12251394E+02   -0.22828504E+02
H     0.12098354E+02   -0.11372423E+02   -0.22825092E+02
H     0.11178543E+02   -0.12720293E+02   -0.21960851E+02
           3
Time step:               34890 Sim. Time [au]      697800.00
O     0.11549702E+02   -0.26957125E+02   -0.14265154E+02
H     0.11622420E+02   -0.26313645E+02   -0.14963015E+02
H     0.12365061E+02   -0.27309240E+02   -0.14175474E+02
           3
Time step:                6670 Sim. Time [au]      133400.00
O     0.16362125E+01   -0.29784524E+01   -0.30357611E+01
H     0.16735166E+01   -0.35738880E+01   -0.23474674E+01
H     0.11571122E+01   -0.36326121E+01   -0.36915190E+01
           3
Time step:               44035 Sim. Time [au]      880700.00
O     0.95895381E+01   -0.15415289E+02   -0.22890238E+02
H     0.91386644E+01   -0.15092402E+02   -0.22016303E+02
H     0.91921345E+01   -0.16152807E+02   -0.23138814E+02
           3
Time step:               40995 Sim. Time [au]      819900.00
O     0.95941783E+01   -0.19153880E+02   -0.22511737E+02
H     0.99978122E+01   -0.19358436E+02   -0.23326880E+02
H     0.89265898E+01   -0.18644405E+02   -0.22594800E+02
           3
Time step:               28745 Sim. Time [au]      574900.00
O     0.15100786E+02   -0.24816397E+02   -0.11578061E+02
H     0.14409628E+02   -0.24378177E+02   -0.12166918E+02
H     0.14736897E+02   -0.25576235E+02   -0.11123193E+02
           3
Time step:                2170 Sim. Time [au]       43400.00
O    -0.13399544E+00   -0.10645299E+01    0.80827765E+00
H    -0.99535988E+00   -0.13297455E+01    0.33310448E+00
H    -0.34078702E+00   -0.10300533E+01    0.17297488E+01
           3
Time step:               49945 Sim. Time [au]      998900.00
O     0.12466082E+02   -0.10368839E+02   -0.23467166E+02
H     0.11643375E+02   -0.10809801E+02   -0.23788552E+02
H     0.12993854E+02   -0.99009752E+01   -0.24136218E+02
           3
Time step:               10570 Sim. Time [au]      211400.00
O     0.36897624E+01   -0.49254624E+01   -0.17660410E+00
H     0.35730120E+01   -0.49197886E+01   -0.10842649E+01
H     0.37612325E+01   -0.41536773E+01    0.21737316E+00
           3
Time step:                6400 Sim. Time [au]      128000.00
O     0.11728461E+01   -0.33561693E+01   -0.31794307E+01
H     0.11916349E+01   -0.37470316E+01   -0.42487753E+01
H     0.16050076E+01   -0.25366017E+01   -0.32421423E+01
           3
Time step:                5160 Sim. Time [au]      103200.00
O     0.86536950E+00   -0.31479500E+01   -0.42842216E+01
H     0.26162912E+00   -0.37753054E+01   -0.38560526E+01
H     0.15929480E+01   -0.38618219E+01   -0.44047108E+01
           3
Time step:               25620 Sim. Time [au]      512400.00
O     0.17457661E+02   -0.19119572E+02   -0.88034426E+01
H     0.17777746E+02   -0.19625162E+02   -0.95157104E+01
H     0.17867085E+02   -0.19763745E+02   -0.81820465E+01
           3
Time step:               27290 Sim. Time [au]      545800.00
O     0.16742200E+02   -0.21707258E+02   -0.97178085E+01
H     0.16069122E+02   -0.22487084E+02   -0.95098202E+01
H     0.16540330E+02   -0.21300217E+02   -0.88993863E+01
           3
Time step:               26095 Sim. Time [au]      521900.00
O     0.17308528E+02   -0.19975160E+02   -0.90888450E+01
H     0.16600417E+02   -0.20543693E+02   -0.94770323E+01
H     0.17823246E+02   -0.20508034E+02   -0.85960974E+01
           3
Time step:               10150 Sim. Time [au]      203000.00
O     0.33065520E+01   -0.41509166E+01   -0.65608310E+00
H     0.28357543E+01   -0.37276547E+01    0.16147954E+00
H     0.28010013E+01   -0.49888831E+01   -0.97241926E+00
           3
Time step:               20910 Sim. Time [au]      418200.00
O     0.12937585E+02   -0.11261191E+02   -0.69139468E+01
H     0.13587524E+02   -0.11762215E+02   -0.66981320E+01
H     0.13411622E+02   -0.10610405E+02   -0.76129491E+01
           3
Time step:                8145 Sim. Time [au]      162900.00
O     0.28238632E+01   -0.23836305E+01   -0.26772051E+01
H     0.25592501E+01   -0.19579459E+01   -0.34585252E+01
H     0.35471888E+01   -0.19619236E+01   -0.24732873E+01
           3
Time step:               19685 Sim. Time [au]      393700.00
O     0.13396984E+02   -0.99110421E+01   -0.70209478E+01
H     0.14311312E+02   -0.96106109E+01   -0.72437139E+01
H     0.13452864E+02   -0.98077942E+01   -0.60295890E+01
           3
Time step:               34350 Sim. Time [au]      687000.00
O     0.11849580E+02   -0.27001516E+02   -0.13506694E+02
H     0.11936103E+02   -0.27389296E+02   -0.12563388E+02
H     0.11001563E+02   -0.27372353E+02   -0.13868347E+02
           3
Time step:                3690 Sim. Time [au]       73800.00
O    -0.10535632E+01   -0.12068820E+01   -0.21617134E+01
H    -0.84755679E-01   -0.12085820E+01   -0.20132437E+01
H    -0.14379707E+01   -0.31982115E+00   -0.16753461E+01
           3
Time step:               39875 Sim. Time [au]      797500.00
O     0.88351810E+01   -0.20654884E+02   -0.21583329E+02
H     0.97015775E+01   -0.21188997E+02   -0.21583052E+02
H     0.81276594E+01   -0.21354279E+02   -0.21867350E+02
           3
Time step:               13440 Sim. Time [au]      268800.00
O     0.56631770E+01   -0.74046182E+01   -0.28815424E+01
H     0.47717239E+01   -0.71540735E+01   -0.24887384E+01
H     0.54060883E+01   -0.82359006E+01   -0.33278248E+01
           3
Time step:                5770 Sim. Time [au]      115400.00
O     0.12982178E+01   -0.40847912E+01   -0.29155424E+01
H     0.95238499E+00   -0.33850817E+01   -0.30557264E+01
H     0.95834676E+00   -0.45732503E+01   -0.23074562E+01
           3
Time step:               34875 Sim. Time [au]      697500.00
O     0.11512564E+02   -0.26981413E+02   -0.14215479E+02
H     0.11555431E+02   -0.26487956E+02   -0.14976821E+02
H     0.12471435E+02   -0.27423604E+02   -0.14069815E+02
           3
Time step:               46485 Sim. Time [au]      929700.00