           3
Time step:                9210 Sim. Time [au]      184200.00
O    -0.40457343E+01   -0.99741657E+00   -0.51735862E+01
H    -0.32462866E+01   -0.13546611E+01   -0.47084390E+01
H    -0.40693499E+01    0.49018696E-02   -0.50008814E+01
           3
Time step:               33465 Sim. Time [au]      669300.00
O    -0.13331877E+02   -0.19086417E+02   -0.15259123E+02
H    -0.13927816E+02   -0.18475637E+02   -0.15668374E+02
H    -0.12854792E+02   -0.18597590E+02   -0.14526009E+02
           3
Time step:               44945 Sim. Time [au]      898900.00
O    -0.22656563E+02   -0.24208787E+02   -0.19634359E+02
H    -0.23401684E+02   -0.24286111E+02   -0.20245007E+02
H    -0.22008851E+02   -0.24251679E+02   -0.20249326E+02
           3
Time step:               16235 Sim. Time [au]      324700.00
O    -0.51392670E+00   -0.78933215E+01   -0.87382740E+01
H    -0.40581033E+00   -0.83569993E+01   -0.79144183E+01
H     0.16005777E+00   -0.77011413E+01   -0.95278178E+01
           3
Time step:               27350 Sim. Time [au]      547000.00
O    -0.12322773E+02   -0.18764098E+02   -0.11508275E+02
H    -0.13115887E+02   -0.19021900E+02   -0.11255832E+02
H    -0.12216255E+02   -0.17702862E+02   -0.11388953E+02
           3
Time step:               35875 Sim. Time [au]      717500.00
O    -0.14379284E+02   -0.18234121E+02   -0.16793558E+02
H    -0.13992905E+02   -0.17903518E+02   -0.17627590E+02
H    -0.14679098E+02   -0.17419864E+02   -0.16160660E+02
           3
Time step:               25230 Sim. Time [au]      504600.00
O    -0.10288462E+02   -0.16391928E+02   -0.10264874E+02
H    -0.94429133E+01   -0.16934614E+02   -0.10277988E+02
H    -0.11054687E+02   -0.16829476E+02   -0.10107020E+02
           3
Time step:               28130 Sim. Time [au]      562600.00
O    -0.12412940E+02   -0.19284899E+02   -0.11544365E+02
H    -0.11792638E+02   -0.19618823E+02   -0.12259520E+02
H    -0.13147981E+02   -0.19751882E+02   -0.12002514E+02
           3
Time step:               15820 Sim. Time [au]      316400.00
O    -0.19158822E+00   -0.77243451E+01   -0.80999539E+01
H     0.59637446E+00   -0.80589724E+01   -0.79384929E+01
H    -0.49698634E+00   -0.74230530E+01   -0.73413721E+01
           3
Time step:               24265 Sim. Time [au]      485300.00
O    -0.88392438E+01   -0.15204358E+02   -0.10760742E+02
H    -0.79396712E+01   -0.14620054E+02   -0.10605466E+02
H    -0.88779270E+01   -0.15443032E+02   -0.11697590E+02
           3
Time step:               17625 Sim. Time [au]      352500.00
O    -0.26513717E+01   -0.92210436E+01   -0.10318856E+02
H    -0.31242874E+01   -0.87650970E+01   -0.95380540E+01
H    -0.16481188E+01   -0.90946685E+01   -0.10267243E+02
           3
Time step:               26165 Sim. Time [au]      523300.00
O    -0.11482636E+02   -0.18064982E+02   -0.10461091E+02
H    -0.11607319E+02   -0.18057318E+02   -0.11521076E+02
H    -0.10577609E+02   -0.18068400E+02   -0.10274450E+02
           3
Time step:               36545 Sim. Time [au]      730900.00
O    -0.14035092E+02   -0.18648010E+02   -0.18355464E+02
H    -0.13884869E+02   -0.18083743E+02   -0.17622253E+02
H    -0.13269686E+02   -0.18687075E+02   -0.18774722E+02
           3
Time step:               21865 Sim. Time [au]      437300.00
O    -0.61217457E+01   -0.12776843E+02   -0.12775537E+02
H    -0.52605757E+01   -0.13185256E+02   -0.12771132E+02
H    -0.61926122E+01   -0.12162584E+02   -0.12108468E+02
           3
Time step:               16590 Sim. Time [au]      331800.00
O    -0.49767778E+00   -0.80585446E+01   -0.95101830E+01
H    -0.10849560E+01   -0.75461797E+01   -0.88677612E+01
H    -0.11083296E+00   -0.86470651E+01   -0.90339933E+01
           3
Time step:                2580 Sim. Time [au]       51600.00
O    -0.14176102E+01    0.15069310E+01   -0.35580072E+00
H    -0.10514021E+01    0.14632289E+01    0.44757995E+00
H    -0.81962832E+00    0.18325192E+01   -0.10543455E+01
           3
Time step:                7080 Sim. Time [au]      141600.00
O    -0.50729379E+01   -0.18400040E+00   -0.37584370E+01
H    -0.46450485E+01   -0.29951171E+00   -0.30072557E+01
H    -0.44761463E+01    0.26917004E+00   -0.42042623E+01
           3
Time step:               38385 Sim. Time [au]      767700.00
O    -0.14041650E+02   -0.20247813E+02   -0.19787008E+02
H    -0.14689142E+02   -0.20298438E+02   -0.20420570E+02
H    -0.13635079E+02   -0.21011542E+02   -0.19169420E+02
           3
Time step:               37010 Sim. Time [au]      740200.00
O    -0.13532197E+02   -0.18617100E+02   -0.18533164E+02
H    -0.13160386E+02   -0.19103628E+02   -0.17830751E+02
H    -0.14423585E+02   -0.18818935E+02   -0.19103055E+02
           3
Time step:               19075 Sim. Time [au]      381500.00
O    -0.40848272E+01   -0.11080500E+02   -0.11495179E+02
H    -0.39996618E+01   -0.11949818E+02   -0.11171736E+02
H    -0.49725758E+01   -0.10579416E+02   -0.11040748E+02
           3
Time step:               42210 Sim. Time [au]      844200.00
O    -0.18879498E+02   -0.24880040E+02   -0.21115534E+02
H    -0.19691331E+02   -0.24352797E+02   -0.21517792E+02
H    -0.18821187E+02   -0.25761575E+02   -0.21629719E+02
           3
Time step:               11030 Sim. Time [au]      220600.00
O    -0.35048884E+01   -0.20355788E+01   -0.56307731E+01
H    -0.38674194E+01   -0.28738938E+01   -0.54923884E+01
H    -0.26323371E+01   -0.21398620E+01   -0.59197490E+01
           3
Time step:               16905 Sim. Time [au]      338100.00
O    -0.75101945E+00   -0.83922019E+01   -0.95964619E+01
H    -0.10722842E+01   -0.82493006E+01   -0.86734117E+01
H    -0.47244791E+00   -0.93668449E+01   -0.92769128E+01
           3
Time step:               17790 Sim. Time [au]      355800.00
O    -0.29939510E+01   -0.93635569E+01   -0.10434488E+02
H    -0.35713970E+01   -0.83525786E+01   -0.10803549E+02
H    -0.25971949E+01   -0.92820653E+01   -0.96788581E+01
           3
Time step:               36305 Sim. Time [au]      726100.00
O    -0.14308887E+02   -0.18489474E+02   -0.18119004E+02
H    -0.14583414E+02   -0.18213216E+02   -0.17356819E+02
H    -0.13625719E+02   -0.17912407E+02   -0.18359709E+02
           3
Time step:               33660 Sim. Time [au]      673200.00
O    -0.13096630E+02   -0.19123362E+02   -0.15348762E+02
H    -0.14040760E+02   -0.19024826E+02   -0.15250265E+02
H    -0.12762326E+02   -0.19608378E+02   -0.14528288E+02
           3
Time step:               45760 Sim. Time [au]      915200.00
O    -0.23685144E+02   -0.23973526E+02   -0.20147953E+02
H    -0.23251455E+02   -0.23090745E+02   -0.20005780E+02
H    -0.23594609E+02   -0.24685181E+02   -0.19470743E+02
           3
Time step:               23460 Sim. Time [au]      469200.00
O    -0.71215147E+01   -0.13724989E+02   -0.11705051E+02
H    -0.77449931E+01   -0.14385295E+02   -0.11673311E+02
H    -0.74787946E+01   -0.13056961E+02   -0.11169664E+02
           3
Time step:               44270 Sim. Time [au]      885400.00
O    -0.22306037E+02   -0.24399228E+02   -0.19975914E+02
H    -0.22506012E+02   -0.23563793E+02   -0.20744779E+02
H    -0.21808978E+02   -0.24973446E+02   -0.20525851E+02
           3
Time step:               38185 Sim. Time [au]      763700.00
O    -0.14154370E+02   -0.20046889E+02   -0.19716056E+02
H    -0.14936689E+02   -0.20139221E+02   -0.19336728E+02
H    -0.13823137E+02   -0.20838778E+02   -0.20136170E+02
           3
Time step:                7330 Sim. Time [au]      146600.00
O    -0.44634651E+01   -0.16907586E+00   -0.42955920E+01
H    -0.51939563E+01   -0.28037004E+00   -0.38682646E+01
H    -0.38055987E+01    0.93699994E-01   -0.36339625E+01
           3
Time step:               36270 Sim. Time [au]      725400.00
O    -0.14255106E+02   -0.18560591E+02   -0.18051067E+02
H    -0.14788331E+02   -0.18601275E+02   -0.17326273E+02
H    -0.13605267E+02   -0.17944690E+02   -0.17978517E+02
           3
Time step:               36420 Sim. Time [au]      728400.00
O    -0.14263404E+02   -0.18463678E+02   -0.18073385E+02
H    -0.14382199E+02   -0.17796366E+02   -0.17357328E+02
H    -0.13359578E+02   -0.18792191E+02   -0.18421784E+02
           3
Time step:                9330 Sim. Time [au]      186600.00
O    -0.38817001E+01   -0.12601653E+01   -0.49767621E+01
H    -0.37860656E+01   -0.15431191E+01   -0.40617177E+01
H    -0.40374067E+01   -0.21059132E+00   -0.49219669E+01
           3
Time step:                6950 Sim. Time [au]      139000.00
O    -0.51241687E+01   -0.23807450E+00   -0.37407947E+01
H    -0.55475272E+01   -0.10618533E+01   -0.39758220E+01
H    -0.56599253E+01    0.32753966E+00   -0.43679152E+01
           3
Time step:               26215 Sim. Time [au]      524300.00
O    -0.11683546E+02   -0.18190798E+02   -0.10502430E+02
H    -0.11412462E+02   -0.18569889E+02   -0.11212417E+02
H    -0.10918467E+02   -0.17898238E+02   -0.10161883E+02
           3
Time step:               16765 Sim. Time [au]      335300.00
O    -0.66379847E+00   -0.81075612E+01   -0.96132622E+01
H    -0.67210078E+00   -0.74693055E+01   -0.89560780E+01
H     0.24401558E+00   -0.83448456E+01   -0.93399464E+01
           3
Time step:               23690 Sim. Time [au]      473800.00
O    -0.76259004E+01   -0.14155200E+02   -0.11554065E+02
H    -0.81174727E+01   -0.14928937E+02   -0.11555012E+02
H    -0.70930185E+01   -0.14199054E+02   -0.10681704E+02
           3
Time step:               35820 Sim. Time [au]      716400.00
O    -0.14321983E+02   -0.18107392E+02   -0.16716340E+02
H    -0.14129528E+02   -0.17638214E+02   -0.17621772E+02
H    -0.14178690E+02   -0.17249239E+02   -0.16150471E+02
           3
Time step:               15445 Sim. Time [au]      308900.00
O    -0.24564594E+00   -0.72241015E+01   -0.75811404E+01
H     0.29826157E+00   -0.78713147E+01   -0.79492842E+01
H     0.36378504E+00   -0.66518003E+01   -0.72120265E+01
           3
Time step:                6190 Sim. Time [au]      123800.00
O    -0.62434296E+01   -0.36785146E+00   -0.38542021E+01
H    -0.55333040E+01    0.30500362E-02   -0.34723284E+01
H    -0.62526848E+01   -0.12741038E+01   -0.42149564E+01
           3
Time step:               13805 Sim. Time [au]      276100.00
O    -0.15182097E+01   -0.41381850E+01   -0.66929689E+01
H    -0.22001756E+01   -0.42462002E+01   -0.71768496E+01
H    -0.19241383E+01   -0.43860162E+01   -0.57757443E+01
           3
Time step:               10735 Sim. Time [au]      214700.00
O    -0.37377957E+01   -0.18445006E+01   -0.56043556E+01
H    -0.33586568E+01   -0.10045002E+01   -0.60800224E+01
H    -0.38149000E+01   -0.24218858E+01   -0.62815619E+01
           3
Time step:               14915 Sim. Time [au]      298300.00
O    -0.44462623E+00   -0.62528229E+01   -0.70811335E+01
H     0.13598305E+00   -0.69474855E+01   -0.72768519E+01
H    -0.13126626E+01   -0.65168852E+01   -0.71218155E+01
           3
Time step:                8300 Sim. Time [au]      166000.00
O    -0.43934503E+01   -0.12179575E-01   -0.44259487E+01
H    -0.49156600E+01    0.73153697E-02   -0.36577029E+01
H    -0.48213986E+01   -0.51821943E+00   -0.50260184E+01
           3
Time step:               48540 Sim. Time [au]      970800.00
O    -0.25911467E+02   -0.27969687E+02   -0.23531401E+02
H    -0.26556366E+02   -0.28145692E+02   -0.22863852E+02
H    -0.25331607E+02   -0.28662187E+02   -0.23422774E+02
           3
Time step:               20910 Sim. Time [au]      418200.00
O    -0.57847281E+01   -0.12482366E+02   -0.12060244E+02
H    -0.50886468E+01   -0.11979353E+02   -0.12010782E+02
H    -0.54488075E+01   -0.13168024E+02   -0.12636101E+02
           3
Time step:                9975 Sim. Time [au]      199500.00
O    -0.38479711E+01   -0.15035079E+01   -0.50794975E+01
H    -0.32258478E+01   -0.15072261E+01   -0.43902810E+01
H    -0.34744645E+01   -0.11645930E+01   -0.58153545E+01
           3
Time step:               14940 Sim. Time [au]      298800.00
O    -0.45204601E+00   -0.62921390E+01   -0.70835641E+01
H     0.23575677E+00   -0.71200590E+01   -0.75401297E+01
H    -0.13294354E+01   -0.65925719E+01   -0.71760390E+01
           3
Time step:               34335 Sim. Time [au]      686700.00
O    -0.13070893E+02   -0.19101918E+02   -0.15226372E+02
H    -0.13090567E+02   -0.19741889E+02   -0.15883576E+02
H    -0.13911197E+02   -0.19088675E+02   -0.15162232E+02
           3
Time step:               29280 Sim. Time [au]      585600.00
O    -0.12745014E+02   -0.19677402E+02   -0.12717705E+02
H    -0.13679395E+02   -0.19483101E+02   -0.12305972E+02
H    -0.12761199E+02   -0.19433091E+02   -0.13621143E+02
           3
Time step:               48980 Sim. Time [au]      979600.00
O    -0.26292848E+02   -0.28103255E+02   -0.24443822E+02
H    -0.25660534E+02   -0.27841347E+02   -0.25095579E+02
H    -0.27011337E+02   -0.27619006E+02   -0.24769022E+02
           3
Time step:                2775 Sim. Time [au]       55500.00
O    -0.20334354E+01    0.18895777E+01   -0.50125132E+00
H    -0.19801028E+01    0.26383822E+01    0.92876164E-01
H    -0.19780922E+01    0.94618927E+00   -0.32322849E+00
           3
Time step:               34340 Sim. Time [au]      686800.00
O    -0.13029652E+02   -0.19089594E+02   -0.15285185E+02
H    -0.12911355E+02   -0.19607753E+02   -0.16068819E+02
H    -0.13870418E+02   -0.19192170E+02   -0.15034606E+02
           3
Time step:               31600 Sim. Time [au]      632000.00
O    -0.14157264E+02   -0.19721909E+02   -0.15447602E+02
H    -0.13936324E+02   -0.18793118E+02   -0.15153080E+02
H    -0.14654457E+02   -0.20034601E+02   -0.14670401E+02
           3
Time step:                9440 Sim. Time [au]      188800.00
O    -0.38120885E+01   -0.12958711E+01   -0.49149839E+01
H    -0.38850242E+01   -0.19661829E+01   -0.43832259E+01
H    -0.40858411E+01   -0.30701883E+00   -0.46681563E+01
           3
Time step:               29900 Sim. Time [au]      598000.00
O    -0.13030278E+02   -0.20134627E+02   -0.13778586E+02
H    -0.12340513E+02   -0.19379879E+02   -0.13751376E+02
H    -0.13297717E+02   -0.20161285E+02   -0.14789201E+02
           3
Time step:                6175 Sim. Time [au]      123500.00
O    -0.62554127E+01   -0.36084690E+00   -0.38501899E+01
H    -0.53378351E+01    0.45557785E-01   -0.36130484E+01
H    -0.60605112E+01   -0.13145667E+01   -0.40743097E+01
           3
Time step:               22795 Sim. Time [au]      455900.00
O    -0.68008339E+01   -0.13152536E+02   -0.11931759E+02
H    -0.64584272E+01   -0.13371274E+02   -0.12794154E+02
H    -0.71464191E+01   -0.12230450E+02   -0.12053715E+02
           3
Time step:               20315 Sim. Time [au]      406300.00
O    -0.51612906E+01   -0.11821480E+02   -0.11968601E+02
H    -0.57873698E+01   -0.12143987E+02   -0.11239898E+02
H    -0.42137495E+01   -0.12141269E+02   -0.11976599E+02
           3
Time step:                6055 Sim. Time [au]      121100.00
O    -0.60152439E+01   -0.44799642E+00   -0.40146728E+01
H    -0.54089111E+01    0.37204450E-01   -0.34090161E+01
H    -0.56121368E+01   -0.12415327E+01   -0.42746112E+01
           3
Time step:               13385 Sim. Time [au]      267700.00
O    -0.22179818E+01   -0.36696984E+01   -0.67343457E+01
H    -0.21401292E+01   -0.36809894E+01   -0.57901974E+01
H    -0.16811495E+01   -0.43528199E+01   -0.72039411E+01
           3
Time step:               39365 Sim. Time [au]      787300.00
O    -0.14874110E+02   -0.21494500E+02   -0.19629858E+02
H    -0.15026896E+02   -0.20701913E+02   -0.19608860E+02
H    -0.15290478E+02   -0.21716428E+02   -0.20371010E+02
           3
Time step:               25730 Sim. Time [au]      514600.00
O    -0.11100746E+02   -0.17667346E+02   -0.10496035E+02
H    -0.10458891E+02   -0.17408833E+02   -0.97831850E+01
H    -0.10960487E+02   -0.18578997E+02   -0.10701955E+02
           3
Time step:               22395 Sim. Time [au]      447900.00
O    -0.68559013E+01   -0.13061340E+02   -0.11858318E+02
H    -0.64750739E+01   -0.13881058E+02   -0.12443064E+02
H    -0.68165439E+01   -0.12223264E+02   -0.12340061E+02
           3
Time step:               31145 Sim. Time [au]      622900.00
O    -0.13618337E+02   -0.19448251E+02   -0.15399032E+02
H    -0.14417336E+02   -0.19988368E+02   -0.15582558E+02
H    -0.12931975E+02   -0.20029819E+02   -0.14881739E+02
           3
Time step:               43445 Sim. Time [au]      868900.00
O    -0.21114816E+02   -0.25081295E+02   -0.20531001E+02
H    -0.20979155E+02   -0.24195249E+02   -0.20196807E+02
H    -0.20486399E+02   -0.25338743E+02   -0.21292804E+02
           3
Time step:               35580 Sim. Time [au]      711600.00
O    -0.13922408E+02   -0.17989086E+02   -0.16420906E+02
H    -0.14425301E+02   -0.17346228E+02   -0.16805896E+02
H    -0.13079836E+02   -0.17990397E+02   -0.16465337E+02
           3
Time step:               28395 Sim. Time [au]      567900.00
O    -0.12553339E+02   -0.19235326E+02   -0.11748062E+02
H    -0.12774053E+02   -0.18501285E+02   -0.12334170E+02
H    -0.13212667E+02   -0.19782947E+02   -0.12288628E+02
           3
Time step:               17140 Sim. Time [au]      342800.00
O    -0.10665325E+01   -0.85299701E+01   -0.96500000E+01
H    -0.16297020E+01   -0.89438524E+01   -0.88098082E+01
H    -0.15453765E+01   -0.89380336E+01   -0.10510449E+02
           3
Time step:               19865 Sim. Time [au]      397300.00
O    -0.49829554E+01   -0.11791194E+02   -0.11708923E+02
H    -0.48245550E+01   -0.12184612E+02   -0.12641271E+02
H    -0.55790870E+01   -0.11204620E+02   -0.11931112E+02
           3
Time step:               34930 Sim. Time [au]      698600.00
O    -0.13089066E+02   -0.18262756E+02   -0.15842026E+02
H    -0.13236593E+02   -0.18893344E+02   -0.15282425E+02
H    -0.13152701E+02   -0.18369398E+02   -0.16783076E+02
           3
Time step:               38400 Sim. Time [au]      768000.00
O    -0.14009928E+02   -0.20192630E+02   -0.19770245E+02
H    -0.14710353E+02   -0.20497197E+02   -0.20279148E+02
H    -0.14036460E+02   -0.20956820E+02   -0.19216803E+02
           3
Time step:                2615 Sim. Time [au]       52300.00
O    -0.14609250E+01    0.16338985E+01   -0.29641230E+00
H    -0.96588432E+00    0.19027706E+01    0.40553550E+00
H    -0.86512924E+00    0.17215037E+01   -0.10040529E+01
           3
Time step:               18505 Sim. Time [au]      370100.00
O    -0.36937382E+01   -0.98759009E+01   -0.10788425E+02
H    -0.28867644E+01   -0.10276443E+02   -0.10740127E+02
H    -0.43523326E+01   -0.10610192E+02   -0.11006906E+02
           3
Time step:               14205 Sim. Time [au]      284100.00
O    -0.10919293E+01   -0.47016677E+01   -0.69778717E+01
H    -0.26903550E+00   -0.43290743E+01   -0.67713966E+01
H    -0.16690466E+01   -0.37788093E+01   -0.71961994E+01
           3
Time step:               42135 Sim. Time [au]      842700.00
O    -0.18820031E+02   -0.24978660E+02   -0.21229231E+02
H    -0.18704620E+02   -0.24418597E+02   -0.21981971E+02
H    -0.19623692E+02   -0.25463081E+02   -0.21300053E+02
           3
Time step:               17770 Sim. Time [au]      355400.00
O    -0.30020581E+01   -0.93744294E+01   -0.10414583E+02
H    -0.33400020E+01   -0.85373636E+01   -0.10496479E+02
H    -0.22340514E+01   -0.93964816E+01   -0.97627500E+01
           3
Time step:               30110 Sim. Time [au]      602200.00
O    -0.12907475E+02   -0.19920599E+02   -0.14033186E+02
H    -0.12164241E+02   -0.20144305E+02   -0.13494947E+02
H    -0.13109802E+02   -0.20726652E+02   -0.14573494E+02
           3
Time step:                2900 Sim. Time [au]       58000.00
O    -0.25369814E+01    0.18667078E+01   -0.47762507E+00
H    -0.28835597E+01    0.26341402E+01    0.11864882E-01
H    -0.16900589E+01    0.18532345E+01   -0.51132723E+00
           3
Time step:                6905 Sim. Time [au]      138100.00
O    -0.52354063E+01   -0.20682524E+00   -0.37419808E+01
H    -0.54363646E+01   -0.10526568E+01   -0.41969391E+01
H    -0.60884867E+01    0.34232160E+00   -0.36421974E+01
           3
Time step:                8760 Sim. Time [au]      175200.00
O    -0.44519571E+01   -0.39017484E+00   -0.48537941E+01
H    -0.43259489E+01   -0.30704115E+00   -0.58362369E+01
H    -0.54052001E+01   -0.77041052E+00   -0.49166252E+01
           3
Time step:                5725 Sim. Time [au]      114500.00
O    -0.56445982E+01   -0.27612775E+00   -0.40564019E+01
H    -0.65312786E+01    0.11363106E+00   -0.35756151E+01
H    -0.53839081E+01   -0.56491309E-01   -0.49006927E+01
           3
Time step:               19855 Sim. Time [au]      397100.00
O    -0.50039487E+01   -0.11804920E+02   -0.11677290E+02
H    -0.48040947E+01   -0.12221033E+02   -0.12529528E+02
H    -0.56787635E+01   -0.11158541E+02   -0.11577518E+02
           3
Time step:               13915 Sim. Time [au]      278300.00
O    -0.14421694E+01   -0.43328458E+01   -0.67858746E+01
H    -0.22037096E+01   -0.41646626E+01   -0.71913518E+01
H    -0.15912010E+01   -0.42892938E+01   -0.58917438E+01
           3
Time step:               45545 Sim. Time [au]      910900.00
O    -0.23450265E+02   -0.24129733E+02   -0.20132502E+02
H    -0.23382512E+02   -0.23524889E+02   -0.20830383E+02
H    -0.24224654E+02   -0.23526481E+02   -0.19752615E+02
           3
Time step:               22775 Sim. Time [au]      455500.00
O    -0.67794841E+01   -0.13168182E+02   -0.11920013E+02
H    -0.63765413E+01   -0.13415928E+02   -0.12618689E+02
H    -0.68627814E+01   -0.12159382E+02   -0.11874930E+02
           3
Time step:                9400 Sim. Time [au]      188000.00
O    -0.38244814E+01   -0.12826187E+01   -0.49253805E+01
H    -0.41127545E+01   -0.19971829E+01   -0.43455694E+01
H    -0.35957048E+01   -0.36671782E+00   -0.44384349E+01
           3
Time step:               34725 Sim. Time [au]      694500.00
O    -0.13091678E+02   -0.18672170E+02   -0.15495909E+02
H    -0.12968694E+02   -0.19347730E+02   -0.16212509E+02
H    -0.12455841E+02   -0.17972127E+02   -0.15922934E+02
           3
Time step:               13040 Sim. Time [au]      260800.00
O    -0.25289447E+01   -0.31221446E+01   -0.68363778E+01
H    -0.18438089E+01   -0.35963960E+01   -0.65970408E+01
H    -0.21636202E+01   -0.25434670E+01   -0.75358712E+01
           3
Time step:                7135 Sim. Time [au]      142700.00
O    -0.47965250E+01   -0.22731779E+00   -0.38839026E+01
H    -0.45187126E+01   -0.31806585E+00   -0.28713099E+01
H    -0.40595480E+01    0.18390336E+00   -0.43510088E+01
           3
Time step:               37500 Sim. Time [au]      750000.00
O    -0.13569259E+02   -0.18841235E+02   -0.18966820E+02
H    -0.13357146E+02   -0.18326584E+02   -0.19730177E+02
H    -0.12651581E+02   -0.19097101E+02   -0.18900120E+02
           3
Time step:               46815 Sim. Time [au]      936300.00
O    -0.24384662E+02   -0.25409692E+02   -0.20912897E+02
H    -0.24136085E+02   -0.24585493E+02   -0.21356486E+02
H    -0.25172450E+02   -0.25370769E+02   -0.20216336E+02
           3
Time step:               22405 Sim. Time [au]      448100.00
O    -0.68828712E+01   -0.13071736E+02   -0.11864708E+02
H    -0.63016490E+01   -0.13544115E+02   -0.12481483E+02
H    -0.70780433E+01   -0.12298161E+02   -0.12415246E+02
           3
Time step:               17970 Sim. Time [au]      359400.00
O    -0.33425720E+01   -0.93641402E+01   -0.10299325E+02
H    -0.29981899E+01   -0.86990988E+01   -0.10852372E+02
H    -0.28802034E+01   -0.94842662E+01   -0.96475499E+01
           3
Time step:               32625 Sim. Time [au]      652500.00
O    -0.14227979E+02   -0.19092310E+02   -0.15347184E+02
H    -0.13506746E+02   -0.18586898E+02   -0.14919356E+02
H    -0.13976861E+02   -0.20037354E+02   -0.15203985E+02
           3
Time step:                9455 Sim. Time [au]      189100.00
O    -0.38104560E+01   -0.13226031E+01   -0.49497816E+01
H    -0.39613508E+01   -0.20713928E+01   -0.42232471E+01
H    -0.41684140E+01   -0.53135665E+00   -0.46762650E+01
           3
Time step:                8820 Sim. Time [au]      176400.00
O    -0.44356758E+01   -0.51360479E+00   -0.49096909E+01
H    -0.41118180E+01   -0.52535787E+00   -0.57578979E+01
H    -0.53683410E+01   -0.31504911E+00   -0.51276391E+01
           3
Time step:               43865 Sim. Time [au]      877300.00
O    -0.21612323E+02   -0.24884012E+02   -0.20185638E+02
H    -0.21612233E+02   -0.25592340E+02   -0.19456568E+02
H    -0.20794946E+02   -0.24313127E+02   -0.20108614E+02
           3
Time step:                7580 Sim. Time [au]      151600.00
O    -0.44912554E+01    0.12299389E+00   -0.42488304E+01
H    -0.41905748E+01   -0.30592800E-02   -0.51324809E+01
H    -0.37109649E+01    0.67750139E+00   -0.38401794E+01
           3
Time step:               33255 Sim. Time [au]      665100.00
O    -0.13705341E+02   -0.19132231E+02   -0.15044677E+02
H    -0.13809912E+02   -0.19579876E+02   -0.15773743E+02
H    -0.13441882E+02   -0.18241684E+02   -0.15390560E+02
           3
Time step:                2690 Sim. Time [au]       53800.00
O    -0.17516852E+01    0.17787809E+01   -0.36295562E+00
H    -0.12746847E+01    0.19356588E+01    0.44689840E+00
H    -0.13165321E+01    0.94987500E+00   -0.69344528E+00
           3
Time step:               14530 Sim. Time [au]      290600.00
O    -0.85862624E+00   -0.52921701E+01   -0.69794044E+01
H    -0.59349185E+00   -0.61544589E+01   -0.72869929E+01
H    -0.63349416E-01   -0.48201168E+01   -0.72442423E+01
           3
Time step:               33720 Sim. Time [au]      674400.00
O    -0.13059991E+02   -0.18938074E+02   -0.15473118E+02
H    -0.13888662E+02   -0.18511766E+02   -0.15136647E+02
H    -0.12812087E+02   -0.19872774E+02   -0.15145560E+02
           3
Time step:                5530 Sim. Time [au]      110600.00
O    -0.54615402E+01    0.18857002E+00   -0.35110824E+01
H    -0.58103780E+01   -0.56913735E+00   -0.39601890E+01
H    -0.57022063E+01    0.10238518E+01   -0.38271022E+01
           3
Time step:               18655 Sim. Time [au]      373100.00
O    -0.38594542E+01   -0.98697935E+01   -0.10998787E+02
H    -0.31750466E+01   -0.10643310E+02   -0.11103237E+02
H    -0.45981755E+01   -0.10284176E+02   -0.11279706E+02
           3
Time step:               23020 Sim. Time [au]      460400.00
O    -0.69662709E+01   -0.13152052E+02   -0.11982158E+02
H    -0.61748504E+01   -0.13015115E+02   -0.12555866E+02
H    -0.67277167E+01   -0.13495620E+02   -0.11143893E+02
           3
Time step:               19410 Sim. Time [au]      388200.00
O    -0.45980880E+01   -0.11472839E+02   -0.11555851E+02
H    -0.39205698E+01   -0.11563787E+02   -0.12179811E+02
H    -0.52854354E+01   -0.11300139E+02   -0.12109943E+02
           3
Time step:                9505 Sim. Time [au]      190100.00
O    -0.39027365E+01   -0.14184407E+01   -0.49722741E+01
H    -0.41153906E+01   -0.21646009E+01   -0.44815041E+01
H    -0.43726603E+01   -0.74085502E+00   -0.44250876E+01
           3
Time step:               49355 Sim. Time [au]      987100.00
O    -0.26618075E+02   -0.28288196E+02   -0.25430523E+02
H    -0.27372310E+02   -0.28758205E+02   -0.25154297E+02
H    -0.25998858E+02   -0.28849565E+02   -0.25095421E+02
           3
Time step:               33625 Sim. Time [au]      672500.00
O    -0.13120650E+02   -0.19031366E+02   -0.15273770E+02
H    -0.14138342E+02   -0.18784687E+02   -0.15284173E+02
H    -0.12843387E+02   -0.19664414E+02   -0.14742777E+02
           3
Time step:               29740 Sim. Time [au]      594800.00
O    -0.12780715E+02   -0.19936399E+02   -0.13547848E+02
H    -0.12865152E+02   -0.19257959E+02   -0.12807172E+02
H    -0.13547156E+02   -0.19949621E+02   -0.14052564E+02
           3
Time step:               28260 Sim. Time [au]      565200.00
O    -0.12588477E+02   -0.19237615E+02   -0.11811525E+02
H    -0.12087259E+02   -0.18954070E+02   -0.12490992E+02
H    -0.13087378E+02   -0.20058872E+02   -0.11920559E+02
           3
Time step:               39355 Sim. Time [au]      787100.00
O    -0.14885307E+02   -0.21495319E+02   -0.19585510E+02
H    -0.15175288E+02   -0.20428800E+02   -0.19466169E+02
H    -0.15364278E+02   -0.21998910E+02   -0.20376191E+02
           3
Time step:               48165 Sim. Time [au]      963300.00
O    -0.25584560E+02   -0.27733050E+02   -0.22715735E+02
H    -0.26408931E+02   -0.27631211E+02   -0.22489060E+02
H    -0.25421437E+02   -0.28485702E+02   -0.23400044E+02
           3
Time step:                8310 Sim. Time [au]      166200.00
O    -0.43683263E+01   -0.18464888E-01   -0.45157535E+01
H    -0.46229412E+01   -0.34459773E-01   -0.36862653E+01
H    -0.48131672E+01   -0.58573127E+00   -0.51018390E+01
           3
Time step:               39720 Sim. Time [au]      794400.00
O    -0.15479438E+02   -0.21594195E+02   -0.20042693E+02
H    -0.14691829E+02   -0.21807226E+02   -0.19648615E+02
H    -0.15637081E+02   -0.20638327E+02   -0.19699238E+02
           3
Time step:               27000 Sim. Time [au]      540000.00
O    -0.12361847E+02   -0.18808167E+02   -0.11241874E+02
H    -0.12875957E+02   -0.19198997E+02   -0.12111362E+02
H    -0.11681712E+02   -0.19335802E+02   -0.11440376E+02
           3
Time step:                2625 Sim. Time [au]       52500.00
O    -0.14934407E+01    0.16946039E+01   -0.32570084E+00
H    -0.89480836E+00    0.18480091E+01    0.39397186E+00
H    -0.10256696E+01    0.16084930E+01   -0.11545331E+01
           3
Time step:               49500 Sim. Time [au]      990000.00
O    -0.26551421E+02   -0.28356491E+02   -0.25450427E+02
H    -0.27336004E+02   -0.28681407E+02   -0.25908697E+02
H    -0.26389804E+02   -0.28440597E+02   -0.24499778E+02
           3
Time step:               24270 Sim. Time [au]      485400.00
O    -0.88637685E+01   -0.15235315E+02   -0.10766467E+02
H    -0.80524189E+01   -0.14664282E+02   -0.10726928E+02
H    -0.87382866E+01   -0.15416899E+02   -0.11715525E+02
           3
Time step:               15905 Sim. Time [au]      318100.00
O    -0.20478097E+00   -0.78015281E+01   -0.81767660E+01
H     0.41528189E+00   -0.83856182E+01   -0.77730884E+01
H    -0.38657295E+00   -0.71364885E+01   -0.74775660E+01
           3
Time step:               40180 Sim. Time [au]      803600.00