           3
Time step:               39025 Sim. Time [au]      780500.00
O     0.41424449E+01   -0.89443359E+01    0.95405277E+01
H     0.33165315E+01   -0.90328621E+01    0.90762212E+01
H     0.36463866E+01   -0.89805628E+01    0.10503598E+02
           3
Time step:               10860 Sim. Time [au]      217200.00
O     0.11564874E+00   -0.36950299E+00    0.61131264E+01
H     0.96955130E+00   -0.76744461E+00    0.63274658E+01
H     0.40679979E+00    0.38635368E+00    0.55663369E+01
           3
Time step:                8415 Sim. Time [au]      168300.00
O    -0.92584348E-01    0.16992557E+01    0.35687416E+01
H    -0.48726996E+00    0.24876277E+01    0.35093607E+01
H    -0.86959221E+00    0.11557902E+01    0.40781184E+01
           3
Time step:               12300 Sim. Time [au]      246000.00
O     0.17772017E+00   -0.15471495E+01    0.75488034E+01
H     0.70334709E+00   -0.81136848E+00    0.72796421E+01
H    -0.58731118E+00   -0.15586087E+01    0.72062444E+01
           3
Time step:               13200 Sim. Time [au]      264000.00
O    -0.25982380E+00   -0.17239693E+01    0.82988460E+01
H    -0.10159466E+01   -0.22523276E+01    0.83728343E+01
H    -0.10014009E-01   -0.13009427E+01    0.91456689E+01
           3
Time step:               13305 Sim. Time [au]      266100.00
O    -0.16887247E+00   -0.16821292E+01    0.84458620E+01
H    -0.80073202E+00   -0.24078612E+01    0.83397405E+01
H    -0.43002222E+00   -0.11854898E+01    0.92063324E+01
           3
Time step:                9560 Sim. Time [au]      191200.00
O     0.29022726E+00    0.15112754E+01    0.43443230E+01
H    -0.55233111E+00    0.17848748E+01    0.44385135E+01
H     0.45781355E+00    0.13170664E+01    0.34128911E+01
           3
Time step:                2850 Sim. Time [au]       57000.00
O    -0.91643862E+00    0.80964843E-01    0.70843601E+00
H    -0.11250861E+01   -0.69385081E+00    0.35147417E+00
H    -0.15930227E+01    0.85953819E+00    0.51569571E+00
           3
Time step:                7830 Sim. Time [au]      156600.00
O    -0.13744505E-01    0.10234911E+01    0.27055402E+01
H    -0.49800953E+00    0.16337437E+01    0.21863662E+01
H     0.79733241E+00    0.14983429E+01    0.28767423E+01
           3
Time step:               14140 Sim. Time [au]      282800.00
O     0.36372562E+00   -0.20687831E+01    0.94736008E+01
H     0.71385575E+00   -0.28287917E+01    0.90120282E+01
H    -0.18096248E+00   -0.15998742E+01    0.88561792E+01
           3
Time step:               35135 Sim. Time [au]      702700.00
O     0.28729690E+01   -0.95556160E+01    0.84919800E+01
H     0.30113683E+01   -0.87570109E+01    0.89467598E+01
H     0.20423534E+01   -0.97186176E+01    0.85241919E+01
           3
Time step:                9485 Sim. Time [au]      189700.00
O     0.19417004E+00    0.15529416E+01    0.40857852E+01
H    -0.15250865E+00    0.19838581E+01    0.47278588E+01
H    -0.66629168E-01    0.19191005E+01    0.32480804E+01
           3
Time step:               28065 Sim. Time [au]      561300.00
O     0.21775962E+01   -0.11305864E+02    0.10473025E+02
H     0.23406936E+01   -0.10212262E+02    0.10269735E+02
H     0.13841373E+01   -0.11471320E+02    0.10016890E+02
           3
Time step:               38130 Sim. Time [au]      762600.00
O     0.30665174E+01   -0.93620593E+01    0.91641369E+01
H     0.36524337E+01   -0.10024149E+02    0.98459452E+01
H     0.33897462E+01   -0.94954405E+01    0.81580684E+01
           3
Time step:               18530 Sim. Time [au]      370600.00
O     0.30010407E+01   -0.81802544E+01    0.93697041E+01
H     0.25281042E+01   -0.89222089E+01    0.90234215E+01
H     0.36262152E+01   -0.79062394E+01    0.86111996E+01
           3
Time step:               27320 Sim. Time [au]      546400.00
O     0.24830629E+01   -0.10058511E+02    0.10117514E+02
H     0.32665786E+01   -0.95777298E+01    0.10155909E+02
H     0.24391196E+01   -0.10559651E+02    0.10835228E+02
           3
Time step:               30555 Sim. Time [au]      611100.00
O     0.11620431E+01   -0.11191230E+02    0.10199773E+02
H     0.16517123E+01   -0.10703301E+02    0.10822510E+02
H     0.33581599E+00   -0.10800169E+02    0.10136878E+02
           3
Time step:                7705 Sim. Time [au]      154100.00
O     0.12851604E+00    0.93173771E+00    0.25844756E+01
H    -0.67097518E+00    0.12874228E+01    0.21958938E+01
H     0.62042119E+00    0.15813734E+01    0.28879976E+01
           3
Time step:               41635 Sim. Time [au]      832700.00
O     0.36487203E+01   -0.97594376E+01    0.13719921E+02
H     0.29667448E+01   -0.92156142E+01    0.13523961E+02
H     0.44620867E+01   -0.94178988E+01    0.14041144E+02
           3
Time step:               13490 Sim. Time [au]      269800.00
O    -0.19640636E+00   -0.14917760E+01    0.86655462E+01
H    -0.22271339E+00   -0.22016501E+01    0.91321381E+01
H    -0.64974294E+00   -0.90750462E+00    0.91883071E+01
           3
Time step:               31690 Sim. Time [au]      633800.00
O     0.17273849E+01   -0.10786218E+02    0.99841391E+01
H     0.20317783E+01   -0.11293155E+02    0.93788938E+01
H     0.10309861E+01   -0.10210922E+02    0.96152946E+01
           3
Time step:               28880 Sim. Time [au]      577600.00
O     0.16989467E+01   -0.12086017E+02    0.10497550E+02
H     0.25767171E+01   -0.12049347E+02    0.10544810E+02
H     0.14622760E+01   -0.11237092E+02    0.10763638E+02
           3
Time step:               29245 Sim. Time [au]      584900.00
O     0.19050496E+01   -0.12158386E+02    0.10410497E+02
H     0.19408194E+01   -0.11134597E+02    0.10534523E+02
H     0.14556447E+01   -0.12402000E+02    0.11187722E+02
           3
Time step:               28410 Sim. Time [au]      568200.00
O     0.18518339E+01   -0.11578006E+02    0.10835688E+02
H     0.10228944E+01   -0.11818360E+02    0.10471652E+02
H     0.25278805E+01   -0.12030709E+02    0.10284399E+02
           3
Time step:               47615 Sim. Time [au]      952300.00
O     0.42902163E+01   -0.14645312E+02    0.20450429E+02
H     0.34509558E+01   -0.14362690E+02    0.20834455E+02
H     0.41566676E+01   -0.15068505E+02    0.19639950E+02
           3
Time step:               32485 Sim. Time [au]      649700.00
O     0.18665094E+01   -0.10540533E+02    0.97902567E+01
H     0.15014721E+01   -0.11183652E+02    0.91627876E+01
H     0.27967076E+01   -0.10417288E+02    0.95520833E+01
           3
Time step:               15040 Sim. Time [au]      300800.00
O     0.14051807E+01   -0.34411786E+01    0.91815261E+01
H     0.63021060E+00   -0.32003230E+01    0.87241324E+01
H     0.20678385E+01   -0.29184591E+01    0.87335237E+01
           3
Time step:               27490 Sim. Time [au]      549800.00
O     0.24798191E+01   -0.10458523E+02    0.10062723E+02
H     0.32184403E+01   -0.96551620E+01    0.98790900E+01
H     0.19043684E+01   -0.10340069E+02    0.10895033E+02
           3
Time step:               49710 Sim. Time [au]      994200.00
O     0.45947115E+01   -0.13177746E+02    0.19170212E+02
H     0.53172234E+01   -0.13080698E+02    0.18450907E+02
H     0.39153123E+01   -0.13838347E+02    0.18688220E+02
           3
Time step:               40170 Sim. Time [au]      803400.00
O     0.45945291E+01   -0.91249271E+01    0.10994064E+02
H     0.38814078E+01   -0.85495517E+01    0.10833513E+02
H     0.45416361E+01   -0.92618864E+01    0.11974030E+02
           3
Time step:               43425 Sim. Time [au]      868500.00
O     0.35099583E+01   -0.12155557E+02    0.16961532E+02
H     0.40901352E+01   -0.12187534E+02    0.16133294E+02
H     0.34904739E+01   -0.11298799E+02    0.17268438E+02
           3
Time step:               17885 Sim. Time [au]      357700.00
O     0.29988642E+01   -0.67914060E+01    0.95976241E+01
H     0.21995839E+01   -0.73953347E+01    0.91556892E+01
H     0.25108229E+01   -0.59282012E+01    0.96693990E+01
           3
Time step:                3805 Sim. Time [au]       76100.00
O    -0.95225909E+00   -0.35597784E+00    0.94691180E+00
H     0.31692902E-01   -0.27245834E-01    0.99188912E+00
H    -0.10656543E+01   -0.10107835E+01    0.14648545E+01
           3
Time step:               35170 Sim. Time [au]      703400.00
O     0.28130344E+01   -0.96480818E+01    0.85448081E+01
H     0.27787710E+01   -0.87422301E+01    0.88286231E+01
H     0.18912946E+01   -0.98448150E+01    0.81661210E+01
           3
Time step:               19480 Sim. Time [au]      389600.00
O     0.33831286E+01   -0.83727425E+01    0.89221647E+01
H     0.24727980E+01   -0.84961963E+01    0.90837666E+01
H     0.37795222E+01   -0.75745735E+01    0.93351577E+01
           3
Time step:               18875 Sim. Time [au]      377500.00
O     0.31544260E+01   -0.83428994E+01    0.94018361E+01
H     0.36426252E+01   -0.85366478E+01    0.85995868E+01
H     0.27944339E+01   -0.75653200E+01    0.95737715E+01
           3
Time step:               45950 Sim. Time [au]      919000.00
O     0.41523862E+01   -0.13325285E+02    0.19876055E+02
H     0.47128243E+01   -0.12927697E+02    0.20422075E+02
H     0.35193451E+01   -0.12806627E+02    0.19622783E+02
           3
Time step:               28695 Sim. Time [au]      573900.00
O     0.18510952E+01   -0.11680686E+02    0.10853119E+02
H     0.20583068E+01   -0.12314868E+02    0.11545705E+02
H     0.22470545E+01   -0.10964945E+02    0.11090948E+02
           3
Time step:               40730 Sim. Time [au]      814600.00
O     0.43309909E+01   -0.94806518E+01    0.11706117E+02
H     0.40955904E+01   -0.99002035E+01    0.12455357E+02
H     0.49039475E+01   -0.86384986E+01    0.11685291E+02
           3
Time step:                6380 Sim. Time [au]      127600.00
O     0.16027649E+00    0.36106968E+00    0.22130823E+01
H     0.47407664E+00   -0.51273008E+00    0.21515646E+01
H    -0.44684990E+00    0.69837706E+00    0.13949051E+01
           3
Time step:               33415 Sim. Time [au]      668300.00
O     0.19108662E+01   -0.10407548E+02    0.94145380E+01
H     0.23559820E+01   -0.10628220E+02    0.87063169E+01
H     0.23543659E+01   -0.11002121E+02    0.10120067E+02
           3
Time step:               37975 Sim. Time [au]      759500.00
O     0.28014846E+01   -0.92540188E+01    0.90874795E+01
H     0.29720823E+01   -0.85213803E+01    0.96712439E+01
H     0.35945737E+01   -0.91221102E+01    0.84252365E+01
           3
Time step:               33085 Sim. Time [au]      661700.00
O     0.19900159E+01   -0.10473481E+02    0.93520156E+01
H     0.14605931E+01   -0.10114633E+02    0.10018258E+02
H     0.22634432E+01   -0.11177376E+02    0.98430145E+01
           3
Time step:               36695 Sim. Time [au]      733900.00
O     0.24042178E+01   -0.91206149E+01    0.86890732E+01
H     0.16765515E+01   -0.89026729E+01    0.90805039E+01
H     0.22037193E+01   -0.10061104E+02    0.83875913E+01
           3
Time step:               43305 Sim. Time [au]      866100.00
O     0.32777661E+01   -0.11936600E+02    0.16725995E+02
H     0.39038052E+01   -0.11643133E+02    0.16085845E+02
H     0.27420669E+01   -0.11370305E+02    0.17253317E+02
           3
Time step:               13270 Sim. Time [au]      265400.00
O    -0.16104921E+00   -0.17643646E+01    0.83479794E+01
H    -0.79946300E+00   -0.23756473E+01    0.79851597E+01
H    -0.49218362E+00   -0.11117382E+01    0.89431899E+01
           3
Time step:               44115 Sim. Time [au]      882300.00
O     0.38336188E+01   -0.12824841E+02    0.18390207E+02
H     0.32111752E+01   -0.12787913E+02    0.17642734E+02
H     0.32775945E+01   -0.13205218E+02    0.19099453E+02
           3
Time step:                4650 Sim. Time [au]       93000.00
O    -0.62553418E+00    0.17599142E-01    0.10673836E+01
H     0.19999915E-01    0.80374444E+00    0.88249997E+00
H    -0.14537645E+01    0.32424403E+00    0.86042451E+00
           3
Time step:               41305 Sim. Time [au]      826100.00
O     0.40898372E+01   -0.97136303E+01    0.12663795E+02
H     0.37777415E+01   -0.92165700E+01    0.13481521E+02
H     0.50450231E+01   -0.99795849E+01    0.13016691E+02
           3
Time step:               49430 Sim. Time [au]      988600.00
O     0.44291767E+01   -0.13557479E+02    0.19024394E+02
H     0.50259037E+01   -0.14080409E+02    0.19491086E+02
H     0.43048671E+01   -0.12964037E+02    0.19772747E+02
           3
Time step:               15805 Sim. Time [au]      316100.00
O     0.18517071E+01   -0.45501509E+01    0.89178338E+01
H     0.16630536E+01   -0.47134131E+01    0.97439226E+01
H     0.11636503E+01   -0.37495362E+01    0.86581200E+01
           3
Time step:               23680 Sim. Time [au]      473600.00
O     0.19784373E+00   -0.80011660E+01    0.10870938E+02
H    -0.61253841E+00   -0.82081736E+01    0.11646865E+02
H     0.99267561E+00   -0.85852803E+01    0.11063645E+02
           3
Time step:               30545 Sim. Time [au]      610900.00
O     0.11475023E+01   -0.11176437E+02    0.10311486E+02
H     0.19623232E+01   -0.10794314E+02    0.10724597E+02
H     0.45122396E+00   -0.10619007E+02    0.10618017E+02
           3
Time step:                2760 Sim. Time [au]       55200.00
O    -0.95062516E+00    0.13326691E+00    0.53669291E+00
H    -0.12726035E+01   -0.65224401E+00    0.80576314E+00
H    -0.15114810E+01    0.89270286E+00    0.85510482E+00
           3
Time step:               38255 Sim. Time [au]      765100.00
O     0.31544908E+01   -0.93979945E+01    0.90894164E+01
H     0.36783327E+01   -0.99957011E+01    0.97271803E+01
H     0.25750750E+01   -0.98259282E+01    0.84629316E+01
           3
Time step:               34865 Sim. Time [au]      697300.00
O     0.27999229E+01   -0.96839431E+01    0.87083869E+01
H     0.35766957E+01   -0.10087652E+02    0.87681904E+01
H     0.26965925E+01   -0.92034486E+01    0.95214477E+01
           3
Time step:                4820 Sim. Time [au]       96400.00
O    -0.55689357E+00   -0.10421255E+00    0.10098017E+01
H    -0.63666426E+00   -0.46651603E+00    0.64349389E-01
H    -0.13972364E+01    0.32890589E+00    0.13175179E+01
           3
Time step:               42010 Sim. Time [au]      840200.00
O     0.34374442E+01   -0.97790929E+01    0.14322564E+02
H     0.32942051E+01   -0.10660147E+02    0.14003054E+02
H     0.44757530E+01   -0.95994253E+01    0.14195212E+02
           3
Time step:               42530 Sim. Time [au]      850600.00
O     0.31922122E+01   -0.10242747E+02    0.15589195E+02
H     0.27442335E+01   -0.10946949E+02    0.16250593E+02
H     0.29774316E+01   -0.10739343E+02    0.14614486E+02
           3
Time step:               37335 Sim. Time [au]      746700.00
O     0.22969856E+01   -0.88716806E+01    0.89968277E+01
H     0.17556546E+01   -0.91673597E+01    0.81277700E+01
H     0.16814737E+01   -0.81041226E+01    0.93945819E+01
           3
Time step:               14280 Sim. Time [au]      285600.00
O     0.57505434E+00   -0.23202653E+01    0.93078199E+01
H     0.63068032E+00   -0.31814207E+01    0.89071548E+01
H    -0.19291879E+00   -0.19185435E+01    0.87520152E+01
           3
Time step:               45400 Sim. Time [au]      908000.00
O     0.43749384E+01   -0.13482864E+02    0.19766606E+02
H     0.39240602E+01   -0.14066068E+02    0.19120809E+02
H     0.49354183E+01   -0.12823421E+02    0.19393535E+02
           3
Time step:               43475 Sim. Time [au]      869500.00
O     0.34608154E+01   -0.12170985E+02    0.17062395E+02
H     0.42700412E+01   -0.12306797E+02    0.16380555E+02
H     0.30196571E+01   -0.11238196E+02    0.17107286E+02
           3
Time step:               39840 Sim. Time [au]      796800.00
O     0.44173693E+01   -0.88343604E+01    0.10295396E+02
H     0.42483692E+01   -0.84108767E+01    0.11161894E+02
H     0.34171389E+01   -0.90941513E+01    0.10000057E+02
           3
Time step:               28400 Sim. Time [au]      568000.00
O     0.18194272E+01   -0.11573174E+02    0.10871247E+02
H     0.10145453E+01   -0.11677670E+02    0.10530704E+02
H     0.22484422E+01   -0.11897516E+02    0.10186861E+02
           3
Time step:               20495 Sim. Time [au]      409900.00
O     0.19477100E+01   -0.84947082E+01    0.99885750E+01
H     0.23860161E+01   -0.79516430E+01    0.10412778E+02
H     0.23782748E+01   -0.91271142E+01    0.94911424E+01
           3
Time step:               13690 Sim. Time [au]      273800.00
O    -0.29302839E+00   -0.15732728E+01    0.87767980E+01
H     0.11265874E+00   -0.23831515E+01    0.92275625E+01
H    -0.46309904E+00   -0.91793087E+00    0.94442485E+01
           3
Time step:               10610 Sim. Time [au]      212200.00
O     0.22007693E+00   -0.69376298E-01    0.57161833E+01
H     0.65425501E+00   -0.55968019E+00    0.48903729E+01
H     0.96353444E-01    0.78871805E+00    0.54650243E+01
           3
Time step:               14480 Sim. Time [au]      289600.00
O     0.78022763E+00   -0.25500246E+01    0.91497330E+01
H     0.15349604E+01   -0.24691187E+01    0.86765791E+01
H     0.12261261E+00   -0.17404347E+01    0.90127826E+01
           3
Time step:               49755 Sim. Time [au]      995100.00
O     0.47041039E+01   -0.13134715E+02    0.19028419E+02
H     0.56068697E+01   -0.12864543E+02    0.18730052E+02
H     0.44381570E+01   -0.13906680E+02    0.18593605E+02
           3
Time step:               47545 Sim. Time [au]      950900.00
O     0.42168490E+01   -0.14613044E+02    0.20280257E+02
H     0.35950797E+01   -0.14415557E+02    0.21146384E+02
H     0.41965321E+01   -0.15403083E+02    0.20017155E+02
           3
Time step:               45845 Sim. Time [au]      916900.00
O     0.42423837E+01   -0.13345951E+02    0.19776084E+02
H     0.39765203E+01   -0.13386457E+02    0.20525548E+02
H     0.40824351E+01   -0.12445123E+02    0.19352703E+02
           3
Time step:               48425 Sim. Time [au]      968500.00
O     0.38707678E+01   -0.14287984E+02    0.20348473E+02
H     0.42981394E+01   -0.15113221E+02    0.20754990E+02
H     0.42531865E+01   -0.13361725E+02    0.20332373E+02
           3
Time step:               40225 Sim. Time [au]      804500.00
O     0.45455945E+01   -0.91392261E+01    0.10979196E+02
H     0.37647601E+01   -0.87352203E+01    0.10612249E+02
H     0.47751017E+01   -0.93459319E+01    0.11800749E+02
           3
Time step:               28645 Sim. Time [au]      572900.00
O     0.18479972E+01   -0.11590646E+02    0.10827329E+02
H     0.17115109E+01   -0.12453451E+02    0.11145812E+02
H     0.23728925E+01   -0.10951464E+02    0.11514399E+02
           3
Time step:               34305 Sim. Time [au]      686100.00
O     0.24686061E+01   -0.99522738E+01    0.93165767E+01
H     0.20161039E+01   -0.93489457E+01    0.85965959E+01
H     0.27886387E+01   -0.10512050E+02    0.85599041E+01
           3
Time step:                2605 Sim. Time [au]       52100.00
O    -0.10593577E+01    0.25605656E+00    0.66139634E+00
H    -0.12939912E+01   -0.22135138E+00   -0.11965147E+00
H    -0.84310897E+00    0.11673900E+01    0.63309930E+00
           3
Time step:               30495 Sim. Time [au]      609900.00
O     0.10664408E+01   -0.11233621E+02    0.10335224E+02
H     0.17243529E+01   -0.10604758E+02    0.10534339E+02
H     0.23570730E+00   -0.10920736E+02    0.10747533E+02
           3
Time step:               27610 Sim. Time [au]      552200.00
O     0.25920845E+01   -0.10717394E+02    0.10076048E+02
H     0.30438145E+01   -0.10026654E+02    0.97638150E+01
H     0.21257628E+01   -0.10307792E+02    0.10789639E+02
           3
Time step:                8880 Sim. Time [au]      177600.00
O     0.13556655E+00    0.18178145E+01    0.35691159E+01
H     0.86062677E+00    0.15592953E+01    0.36938589E+01
H     0.19471156E+00    0.27427407E+01    0.39011015E+01
           3
Time step:               38000 Sim. Time [au]      760000.00
O     0.28946083E+01   -0.91501284E+01    0.90123785E+01
H     0.30177609E+01   -0.86291112E+01    0.98007757E+01
H     0.36891044E+01   -0.91786808E+01    0.85172270E+01
           3
Time step:               27165 Sim. Time [au]      543300.00
O     0.23546970E+01   -0.98502104E+01    0.10282920E+02
H     0.29855180E+01   -0.94400055E+01    0.96433300E+01
H     0.26432250E+01   -0.10648122E+02    0.10279666E+02
           3
Time step:               22830 Sim. Time [au]      456600.00
O     0.72878791E+00   -0.70922255E+01    0.11149635E+02
H     0.36159285E+00   -0.71937014E+01    0.10030573E+02
H     0.11434268E+01   -0.62751293E+01    0.11108206E+02
           3
Time step:               14775 Sim. Time [au]      295500.00
O     0.11328082E+01   -0.29961931E+01    0.88762916E+01
H     0.15617565E+01   -0.30367546E+01    0.97766876E+01
H     0.16326498E+01   -0.26482875E+01    0.81701429E+01
           3
Time step:               19515 Sim. Time [au]      390300.00
O     0.33523485E+01   -0.82688291E+01    0.89316655E+01
H     0.26193430E+01   -0.88406088E+01    0.92961499E+01
H     0.36394986E+01   -0.74998059E+01    0.94716010E+01
           3
Time step:               45705 Sim. Time [au]      914100.00
O     0.43025455E+01   -0.13452131E+02    0.19905542E+02
H     0.36435745E+01   -0.13763600E+02    0.20388826E+02
H     0.40076292E+01   -0.12553387E+02    0.19895447E+02
           3
Time step:               10360 Sim. Time [au]      207200.00
O     0.65756129E-01    0.11701063E+00    0.52549997E+01
H     0.18590017E-01   -0.20126850E+00    0.42893127E+01
H     0.89496324E+00    0.69682273E+00    0.54330947E+01
           3
Time step:                6050 Sim. Time [au]      121000.00
O    -0.35620129E-01    0.18594506E+00    0.17707928E+01
H     0.44520238E+00   -0.65550419E+00    0.16702188E+01
H    -0.69472361E+00    0.56330554E-01    0.23947657E+01
           3
Time step:               46690 Sim. Time [au]      933800.00
O     0.37864354E+01   -0.14095335E+02    0.19841578E+02
H     0.32507288E+01   -0.14018587E+02    0.20528678E+02
H     0.46869247E+01   -0.13695077E+02    0.20095453E+02
           3
Time step:               33530 Sim. Time [au]      670600.00
O     0.18189356E+01   -0.10369491E+02    0.94873066E+01
H     0.25698483E+01   -0.10690150E+02    0.92708225E+01
H     0.13639165E+01   -0.11136435E+02    0.99713982E+01
           3
Time step:               34675 Sim. Time [au]      693500.00
O     0.24662013E+01   -0.95631018E+01    0.88018871E+01
H     0.27634124E+01   -0.10237473E+02    0.82269934E+01
H     0.33300726E+01   -0.94588638E+01    0.93836234E+01
           3
Time step:               33480 Sim. Time [au]      669600.00
O     0.17652847E+01   -0.10312053E+02    0.94895271E+01
H     0.26152809E+01   -0.10487127E+02    0.90456030E+01
H     0.16561421E+01   -0.10678964E+02    0.10389952E+02
           3
Time step:               23545 Sim. Time [au]      470900.00
O     0.13153538E+00   -0.77091917E+01    0.10798881E+02
H    -0.59572409E+00   -0.81600242E+01    0.10864848E+02
H     0.92107024E+00   -0.81379863E+01    0.11336467E+02
           3
Time step:               36400 Sim. Time [au]      728000.00
O     0.24999100E+01   -0.92149542E+01    0.86588711E+01
H     0.22057430E+01   -0.82243210E+01    0.85100460E+01
H     0.18690226E+01   -0.97632324E+01    0.85312917E+01
           3
Time step:               40945 Sim. Time [au]      818900.00
O     0.44364719E+01   -0.96825154E+01    0.11970311E+02
H     0.41797549E+01   -0.94660022E+01    0.12878262E+02
H     0.35925020E+01   -0.10176087E+02    0.11826332E+02
           3
Time step:               35980 Sim. Time [au]      719600.00
O     0.25700542E+01   -0.92637495E+01    0.84666220E+01
H     0.31707131E+01   -0.87393197E+01    0.80458260E+01
H     0.23084835E+01   -0.97727779E+01    0.77869487E+01
           3
Time step:               36635 Sim. Time [au]      732700.00
O     0.25053615E+01   -0.91964060E+01    0.87494760E+01
H     0.16840692E+01   -0.85907245E+01    0.89709465E+01
H     0.21562128E+01   -0.99641937E+01    0.83889131E+01
           3
Time step:               19875 Sim. Time [au]      397500.00
O     0.28406019E+01   -0.84914743E+01    0.92147618E+01
H     0.28764176E+01   -0.91057142E+01    0.97574281E+01
H     0.21793767E+01   -0.78212097E+01    0.97345998E+01
           3
Time step:                6935 Sim. Time [au]      138700.00
O     0.41094011E+00    0.82131954E+00    0.21912227E+01
H     0.38847890E+00   -0.34456334E-01    0.24102839E+01
H     0.30827571E+00    0.14906492E+01    0.27525119E+01
           3
Time step:               28460 Sim. Time [au]      569200.00
O     0.18076371E+01   -0.11569873E+02    0.10828720E+02
H     0.12489697E+01   -0.12359972E+02    0.10697462E+02
H     0.27096686E+01   -0.11950922E+02    0.10848826E+02
           3
Time step:               36090 Sim. Time [au]      721800.00
O     0.25416534E+01   -0.92428668E+01    0.85352515E+01
H     0.28353904E+01   -0.86065609E+01    0.80454742E+01
H     0.17434066E+01   -0.97117111E+01    0.82404442E+01
           3
Time step:               27210 Sim. Time [au]      544200.00
O     0.23873307E+01   -0.99727729E+01    0.10164103E+02
H     0.31570161E+01   -0.92710027E+01    0.98657873E+01
H     0.25927847E+01   -0.10706026E+02    0.10640944E+02
           3
Time step:               29835 Sim. Time [au]      596700.00
O     0.14165801E+01   -0.12034480E+02    0.10340570E+02
H     0.13648718E+01   -0.12821664E+02    0.97825332E+01
H     0.20825432E+01   -0.11410920E+02    0.10045377E+02
           3
Time step:                4725 Sim. Time [au]       94500.00
O    -0.57566518E+00    0.45412447E-01    0.10805810E+01
H     0.20371633E+00    0.26522109E+00    0.67447454E+00
H    -0.13158705E+01    0.45170320E+00    0.63040976E+00
           3
Time step:               38175 Sim. Time [au]      763500.00
O     0.30511937E+01   -0.94077130E+01    0.92020183E+01
H     0.36878402E+01   -0.10003631E+02    0.96711343E+01
H     0.27753506E+01   -0.96639228E+01    0.84367394E+01
           3
Time step:                7165 Sim. Time [au]      143300.00
O     0.42269573E+00    0.10231025E+01    0.22485952E+01
H     0.58014371E+00    0.14176323E+00    0.26900008E+01
H    -0.35082604E+00    0.13326320E+01    0.25846373E+01
           3
Time step:               27710 Sim. Time [au]      554200.00
O     0.24847666E+01   -0.10767765E+02    0.10116675E+02
H     0.25650500E+01   -0.10016284E+02    0.94309727E+01
H     0.18357254E+01   -0.10815435E+02    0.10651247E+02
           3
Time step:               39735 Sim. Time [au]      794700.00
O     0.43447467E+01   -0.86592791E+01    0.10054838E+02
H     0.40054679E+01   -0.82581765E+01    0.10745606E+02
H     0.38069625E+01   -0.91746882E+01    0.96051218E+01
           3
Time step:               41640 Sim. Time [au]      832800.00
O     0.36722327E+01   -0.97257108E+01    0.13766831E+02
H     0.29596980E+01   -0.90791714E+01    0.13480445E+02
H     0.44925407E+01   -0.92421170E+01    0.13927647E+02
           3
Time step:               19685 Sim. Time [au]      393700.00
O     0.30530294E+01   -0.83911233E+01    0.91145016E+01
H     0.33009252E+01   -0.92173181E+01    0.92207359E+01
H     0.31606502E+01   -0.80558286E+01    0.10005255E+02
           3
Time step:               21130 Sim. Time [au]      422600.00
O     0.17161542E+01   -0.75858889E+01    0.10742305E+02
H     0.10909828E+01   -0.83722292E+01    0.10407219E+02
H     0.12932323E+01   -0.67365079E+01    0.11000010E+02
           3
Time step:               17690 Sim. Time [au]      353800.00
O     0.29354071E+01   -0.64721084E+01    0.92863180E+01
H     0.31015557E+01   -0.71483256E+01    0.86287519E+01
H     0.28367387E+01   -0.57040492E+01    0.87055115E+01
           3
Time step:               44415 Sim. Time [au]      888300.00
O     0.39927145E+01   -0.13143505E+02    0.18624049E+02
H     0.37859937E+01   -0.12911525E+02    0.19591193E+02
H     0.48643524E+01   -0.13331827E+02    0.18701482E+02
           3
Time step:               22970 Sim. Time [au]      459400.00
O     0.63109485E+00   -0.71646803E+01    0.11138781E+02
H     0.93195568E-01   -0.72159064E+01    0.10358013E+02
H     0.35089161E+00   -0.64510005E+01    0.11719074E+02
           3
Time step:               43810 Sim. Time [au]      876200.00
O     0.34739252E+01   -0.12609080E+02    0.17620945E+02
H     0.37507020E+01   -0.12101532E+02    0.16870635E+02
H     0.27444574E+01   -0.12276526E+02    0.17984579E+02
           3
Time step:               13695 Sim. Time [au]      273900.00
O    -0.23897968E+00   -0.16767958E+01    0.88050029E+01
H    -0.53911938E-01   -0.22226641E+01    0.95139720E+01
H    -0.39577861E+00   -0.79080175E+00    0.91297872E+01
           3
Time step:                3920 Sim. Time [au]       78400.00
O    -0.91382290E+00   -0.41161156E+00    0.99079134E+00
H    -0.28358972E+00    0.17035749E+00    0.90122367E+00
H    -0.13898111E+01   -0.68682770E+00    0.18183332E+01
           3
Time step:               35325 Sim. Time [au]      706500.00
O     0.26990767E+01   -0.97505354E+01    0.83541108E+01
H     0.29353692E+01   -0.89148017E+01    0.88849435E+01
H     0.21836571E+01   -0.94742587E+01    0.76209926E+01
           3
Time step:               43540 Sim. Time [au]      870800.00
O     0.34828445E+01   -0.12227152E+02    0.17233563E+02
H     0.39328134E+01   -0.12527200E+02    0.16399196E+02
H     0.33079834E+01   -0.11362200E+02    0.17382376E+02
           3
Time step:                9550 Sim. Time [au]      191000.00
O     0.23655222E+00    0.15457464E+01    0.43281705E+01
H    -0.67235194E+00    0.19944610E+01    0.42851526E+01
H     0.54718305E+00    0.14228254E+01    0.34620007E+01
           3
Time step:               27560 Sim. Time [au]      551200.00
O     0.25254400E+01   -0.10678888E+02    0.10072661E+02
H     0.32088390E+01   -0.97989866E+01    0.10081385E+02
H     0.20214754E+01   -0.10508887E+02    0.10980385E+02
           3
Time step:               27030 Sim. Time [au]      540600.00
O     0.23901085E+01   -0.97002083E+01    0.10258415E+02
H     0.23381032E+01   -0.88445529E+01    0.99125257E+01
H     0.21887623E+01   -0.10395456E+02    0.96106457E+01
           3
Time step:               38995 Sim. Time [au]      779900.00